<?xml version="1.0"?>
<VTKFile type="UnstructuredGrid"  version="0.1"  >
<UnstructuredGrid>
<Piece  NumberOfPoints="10199" NumberOfCells="20110">
<Points>
<DataArray  type="Float64"  NumberOfComponents="3"  format="ascii">0 -5 0  8 -5 0  30 -5 0  40 -5 0  40 5 0  30 5 0  8 5 0  0 5 0  8 -2.5 0  15 -2.5 0  30 -2.5 0  30 2.5 0  15 2.5 0  8 2.5 0  10 0.5 0  10 -0.5 0  0 0 0  0.4210526315780956 -5 0  0.8421052631563433 -5 0  1.263157894734281 -5 0  1.684210526311999 -5 0  2.105263157889717 -5 0  2.526315789467435 -5 0  2.947368421045153 -5 0  3.368421052622872 -5 0  3.78947368420059 -5 0  4.210526315779479 -5 0  4.631578947359537 -5 0  5.052631578939595 -5 0  5.473684210519653 -5 0  5.89473684209971 -5 0  6.315789473679768 -5 0  6.736842105259826 -5 0  7.157894736839884 -5 0  7.578947368419942 -5 0  8.407407407405314 -5 0  8.814814814810628 -5 0  9.222222222215942 -5 0  9.629629629621256 -5 0  10.03703703702657 -5 0  10.44444444443188 -5 0  10.8518518518372 -5 0  11.25925925924251 -5 0  11.66666666664783 -5 0  12.07407407405314 -5 0  12.48148148145846 -5 0  12.88888888886377 -5 0  13.29629629626908 -5 0  13.7037037036744 -5 0  14.11111111107971 -5 0  14.51851851848502 -5 0  14.92592592589034 -5 0  15.33333333329565 -5 0  15.74074074070096 -5 0  16.14814814810754 -5 0  16.55555555551614 -5 0  16.96296296292474 -5 0  17.37037037033335 -5 0  17.77777777774195 -5 0  18.18518518515056 -5 0  18.59259259255916 -5 0  18.99999999996776 -5 0  19.40740740737636 -5 0  19.81481481478497 -5 0  20.22222222219357 -5 0  20.62962962960217 -5 0  21.03703703701077 -5 0  21.44444444441937 -5 0  21.85185185182797 -5 0  22.25925925923657 -5 0  22.66666666664518 -5 0  23.07407407405378 -5 0  23.48148148146238 -5 0  23.88888888887098 -5 0  24.29629629627958 -5 0  24.70370370368818 -5 0  25.11111111109678 -5 0  25.51851851850539 -5 0  25.92592592591399 -5 0  26.33333333332259 -5 0  26.74074074073119 -5 0  27.14814814813979 -5 0  27.55555555554839 -5 0  27.96296296295699 -5 0  28.3703703703656 -5 0  28.7777777777742 -5 0  29.1851851851828 -5 0  29.5925925925914 -5 0  30.41666666667852 -5 0  30.83333333335704 -5 0  31.25000000003556 -5 0  31.66666666671408 -5 0  32.08333333338936 -5 0  32.50000000005308 -5 0  32.9166666667168 -5 0  33.33333333338052 -5 0  33.75000000004424 -5 0  34.16666666670795 -5 0  34.58333333337167 -5 0  35.00000000003539 -5 0  35.41666666669911 -5 0  35.83333333336282 -5 0  36.25000000002654 -5 0  36.66666666669026 -5 0  37.08333333335398 -5 0  37.50000000001769 -5 0  37.91666666668141 -5 0  38.33333333334513 -5 0  38.75000000000885 -5 0  39.16666666667257 -5 0  39.58333333333628 -5 0  40 -4.583333333332821 0  40 -4.166666666665642 0  40 -3.74999999999855 0  40 -3.333333333333135 0  40 -2.916666666667806 0  40 -2.500000000002478 0  40 -2.083333333337148 0  40 -1.666666666671818 0  40 -1.250000000006488 0  40 -0.8333333333405228 0  40 -0.4166666666733416 0  40 -6.163070054299169e-12 0  40 0.4166666666610173 0  40 0.8333333333281976 0  40 1.249999999995378 0  40 1.666666666662558 0  40 2.083333333329739 0  40 2.499999999996919 0  40 2.916666666664099 0  40 3.33333333333128 0  40 3.74999999999846 0  40 4.166666666665641 0  40 4.583333333332821 0  39.58333333333628 5 0  39.16666666667256 5 0  38.75000000000885 5 0  38.33333333334513 5 0  37.91666666668141 5 0  37.50000000001769 5 0  37.08333333335398 5 0  36.66666666669025 5 0  36.25000000002654 5 0  35.83333333336282 5 0  35.41666666669911 5 0  35.00000000003539 5 0  34.58333333337167 5 0  34.16666666670795 5 0  33.75000000004424 5 0  33.33333333338052 5 0  32.9166666667168 5 0  32.50000000005308 5 0  32.08333333338936 5 0  31.66666666671408 5 0  31.25000000003556 5 0  30.83333333335704 5 0  30.41666666667852 5 0  29.59259259259259 5 0  29.18518518518519 5 0  28.77777777777778 5 0  28.37037037037037 5 0  27.96296296296296 5 0  27.55555555555556 5 0  27.14814814814815 5 0  26.74074074074074 5 0  26.33333333333333 5 0  25.92592592592593 5 0  25.51851851851852 5 0  25.11111111111111 5 0  24.7037037037037 5 0  24.2962962962963 5 0  23.88888888888889 5 0  23.48148148148148 5 0  23.07407407407408 5 0  22.66666666666667 5 0  22.25925925925926 5 0  21.85185185185185 5 0  21.44444444444445 5 0  21.03703703703704 5 0  20.62962962962963 5 0  20.22222222222222 5 0  19.81481481481482 5 0  19.40740740740741 5 0  19 5 0  18.5925925925926 5 0  18.18518518518519 5 0  17.77777777777778 5 0  17.37037037037037 5 0  16.96296296296296 5 0  16.55555555555556 5 0  16.14814814814815 5 0  15.74074074074074 5 0  15.33333333333333 5 0  14.92592592592593 5 0  14.51851851851852 5 0  14.11111111111111 5 0  13.70370370370371 5 0  13.2962962962963 5 0  12.88888888888889 5 0  12.48148148148148 5 0  12.07407407407408 5 0  11.66666666666667 5 0  11.25925925925926 5 0  10.85185185185185 5 0  10.44444444444445 5 0  10.03703703703704 5 0  9.629629629629633 5 0  9.222222222222221 5 0  8.814814814814817 5 0  8.407407407407408 5 0  7.5789473684193 5 0  7.157894736838599 5 0  6.73684210526082 5 0  6.315789473684795 5 0  5.894736842108769 5 0  5.473684210532742 5 0  5.052631578956715 5 0  4.631578947380689 5 0  4.210526315804662 5 0  3.789473684226299 5 0  3.368421052645599 5 0  2.947368421064898 5 0  2.526315789484198 5 0  2.105263157903499 5 0  1.6842105263228 5 0  1.2631578947421 5 0  0.8421052631613994 5 0  0.4210526315806993 5 0  0 4.545454545454545 0  0 4.09090909090909 0  0 3.636363636363634 0  0 3.18181818181818 0  0 2.727272727272726 0  0 2.272727272727271 0  0 1.818181818181817 0  0 1.363636363636363 0  0 0.9090909090909092 0  0 0.454545454545455 0  0 -0.4545454545450807 0  0 -0.9090909090895867 0  0 -1.363636363633713 0  0 -1.818181818177841 0  0 -2.272727272723127 0  0 -2.727272727269273 0  0 -3.181818181815419 0  0 -3.636363636361564 0  0 -4.090909090907709 0  0 -4.545454545453855 0  8 -4.499999999999999 0  8 -3.999999999999999 0  8 -3.499999999999999 0  8 -3 0  8.137254901963859 -2.5 0  8.274509803926303 -2.5 0  8.411764705886863 -2.5 0  8.549019607849138 -2.5 0  8.686274509809513 -2.5 0  8.82352941176989 -2.5 0  8.960784313730265 -2.5 0  9.098039215690642 -2.5 0  9.235294117651017 -2.5 0  9.372549019611395 -2.5 0  9.50980392157177 -2.5 0  9.647058823532147 -2.5 0  9.784313725492522 -2.5 0  9.921568627452897 -2.5 0  10.05882352941327 -2.5 0  10.19607843137365 -2.5 0  10.33333333333402 -2.5 0  10.4705882352944 -2.5 0  10.60784313725478 -2.5 0  10.74509803921515 -2.5 0  10.88235294117553 -2.5 0  11.0196078431359 -2.5 0  11.15686274509628 -2.5 0  11.29411764705665 -2.5 0  11.43137254901703 -2.5 0  11.56862745097915 -2.5 0  11.70588235294301 -2.5 0  11.84313725490686 -2.5 0  11.98039215687072 -2.5 0  12.11764705883209 -2.5 0  12.25490196079247 -2.5 0  12.39215686275285 -2.5 0  12.52941176471322 -2.5 0  12.6666666666736 -2.5 0  12.80392156863397 -2.5 0  12.94117647059435 -2.5 0  13.07843137255473 -2.5 0  13.2156862745151 -2.5 0  13.35294117647548 -2.5 0  13.49019607843586 -2.5 0  13.62745098039623 -2.5 0  13.76470588235661 -2.5 0  13.90196078431699 -2.5 0  14.03921568627736 -2.5 0  14.17647058823774 -2.5 0  14.31372549019812 -2.5 0  14.45098039215849 -2.5 0  14.58823529411887 -2.5 0  14.72549019607925 -2.5 0  14.86274509803962 -2.5 0  15.20270270270254 -2.5 0  15.40540540540509 -2.5 0  15.60810810810763 -2.5 0  15.81081081081017 -2.5 0  16.01351351351227 -2.5 0  16.21621621621265 -2.5 0  16.41891891891279 -2.5 0  16.62162162161294 -2.5 0  16.82432432431308 -2.5 0  17.02702702701322 -2.5 0  17.22972972971337 -2.5 0  17.43243243241351 -2.5 0  17.63513513511365 -2.5 0  17.83783783781379 -2.5 0  18.04054054051394 -2.5 0  18.24324324321408 -2.5 0  18.44594594591422 -2.5 0  18.64864864861436 -2.5 0  18.85135135131451 -2.5 0  19.05405405401465 -2.5 0  19.25675675671479 -2.5 0  19.45945945941494 -2.5 0  19.66216216211508 -2.5 0  19.86486486481522 -2.5 0  20.06756756751536 -2.5 0  20.27027027021551 -2.5 0  20.47297297291565 -2.5 0  20.6756756756158 -2.5 0  20.87837837831594 -2.5 0  21.08108108101608 -2.5 0  21.28378378371622 -2.5 0  21.48648648641637 -2.5 0  21.68918918911651 -2.5 0  21.89189189181666 -2.5 0  22.0945945945168 -2.5 0  22.29729729721694 -2.5 0  22.49999999991778 -2.5 0  22.70270270262203 -2.5 0  22.90540540532697 -2.5 0  23.10810810803191 -2.5 0  23.31081081073686 -2.5 0  23.5135135134418 -2.5 0  23.71621621614674 -2.5 0  23.91891891885169 -2.5 0  24.12162162155663 -2.5 0  24.32432432426158 -2.5 0  24.52702702696652 -2.5 0  24.72972972967146 -2.5 0  24.93243243237641 -2.5 0  25.13513513508135 -2.5 0  25.3378378377863 -2.5 0  25.54054054049124 -2.5 0  25.74324324319618 -2.5 0  25.94594594590112 -2.5 0  26.14864864860607 -2.5 0  26.35135135131101 -2.5 0  26.55405405401596 -2.5 0  26.7567567567209 -2.5 0  26.95945945942584 -2.5 0  27.16216216213079 -2.5 0  27.36486486483573 -2.5 0  27.56756756754068 -2.5 0  27.77027027024562 -2.5 0  27.97297297295056 -2.5 0  28.1756756756555 -2.5 0  28.37837837836045 -2.5 0  28.5810810810654 -2.5 0  28.78378378377034 -2.5 0  28.98648648647528 -2.5 0  29.18918918918023 -2.5 0  29.39189189188517 -2.5 0  29.59459459459011 -2.5 0  29.79729729729506 -2.5 0  30 -3.000000000000001 0  30 -3.500000000000001 0  30 -4.000000000000001 0  30 -4.5 0  8 4.499999999999999 0  8 3.999999999999999 0  8 3.499999999999999 0  8 3 0  8.137254901963859 2.5 0  8.274509803926303 2.5 0  8.411764705886863 2.5 0  8.549019607849138 2.5 0  8.686274509809513 2.5 0  8.82352941176989 2.5 0  8.960784313730265 2.5 0  9.098039215690642 2.5 0  9.235294117651017 2.5 0  9.372549019611395 2.5 0  9.50980392157177 2.5 0  9.647058823532147 2.5 0  9.784313725492522 2.5 0  9.921568627452897 2.5 0  10.05882352941327 2.5 0  10.19607843137365 2.5 0  10.33333333333402 2.5 0  10.4705882352944 2.5 0  10.60784313725478 2.5 0  10.74509803921515 2.5 0  10.88235294117553 2.5 0  11.0196078431359 2.5 0  11.15686274509628 2.5 0  11.29411764705665 2.5 0  11.43137254901703 2.5 0  11.56862745097915 2.5 0  11.70588235294301 2.5 0  11.84313725490686 2.5 0  11.98039215687072 2.5 0  12.11764705883209 2.5 0  12.25490196079247 2.5 0  1
[...]
<PointData  Vectors="f_17"> 
<DataArray  type="Float64"  Name="f_17"  NumberOfComponents="3" format="ascii">1.0000001317187428e+00 0.0000000000000000e+00 0.0000000000000000e+00  1.0389237069635400e+00 0.0000000000000000e+00 0.0000000000000000e+00  1.0615728346856828e+00 0.0000000000000000e+00 0.0000000000000000e+00  1.0869133632239079e+00 0.0000000000000000e+00 0.0000000000000000e+00  1.0773364830717420e+00 0.0000000000000000e+00 0.0000000000000000e+00  1.0528502703675786e+00 0.0000000000000000e+00 0.0000000000000000e+00  1.0419405406958964e+00 0.0000000000000000e+00 0.0000000000000000e+00  1.0000001317187428e+00 0.0000000000000000e+00 0.0000000000000000e+00  1.0191032213220939e+00 -4.9148068583504942e-02 0.0000000000000000e+00  1.0173948114796700e+00 7.7754464531961179e-02 0.0000000000000000e+00  1.0829769809863119e+00 7.0499392593799948e-02 0.0000000000000000e+00  1.0402424866057427e+00 7.9174582183148712e-02 0.0000000000000000e+00  1.1112156441768035e+00 4.6145270486267168e-02 0.0000000000000000e+00  1.0236765645589232e+00 5.2449905138769508e-02 0.0000000000000000e+00  0.0000000000000000e+00 0.0000000000000000e+00 0.0000000000000000e+00  0.0000000000000000e+00 0.0000000000000000e+00 0.0000000000000000e+00  1.0000001317187428e+00 0.0000000000000000e+00 0.0000000000000000e+00  9.9930174348024625e-01 0.0000000000000000e+00 0.0000000000000000e+00  9.9875854315766821e-01 0.0000000000000000e+00 0.0000000000000000e+00  1.0008000175826828e+00 0.0000000000000000e+00 0.0000000000000000e+00  1.0005696661524228e+00 0.0000000000000000e+00 0.0000000000000000e+00  1.0014473358670299e+00 0.0000000000000000e+00 0.0000000000000000e+00  1.0016304559602378e+00 0.0000000000000000e+00 0.0000000000000000e+00  1.0017485417354917e+00 0.0000000000000000e+00 0.0000000000000000e+00  1.0023727278195269e+00 0.0000000000000000e+00 0.0000000000000000e+00  1.0033844377848682e+00 0.0000000000000000e+00 0.0000000000000000e+00  1.0043114581125057e+00 0.0000000000000000e+00 0.0000000000000000e+00  1.0055922687936349e+00 0.0000000000000000e+00 0.0000000000000000e+00  1.0076596098464667e+00 0.0000000000000000e+00 0.0000000000000000e+00  1.0098441431162004e+00 0.0000000000000000e+00 0.0000000000000000e+00  1.0136151947832195e+00 0.0000000000000000e+00 0.0000000000000000e+00  1.0151663849543104e+00 0.0000000000000000e+00 0.0000000000000000e+00  1.0195177857395712e+00 0.0000000000000000e+00 0.0000000000000000e+00  1.0260340881313061e+00 0.0000000000000000e+00 0.0000000000000000e+00  1.0312232801136385e+00 0.0000000000000000e+00 0.0000000000000000e+00  1.0467313315068281e+00 0.0000000000000000e+00 0.0000000000000000e+00  1.0550633657555379e+00 0.0000000000000000e+00 0.0000000000000000e+00  1.0629529667513919e+00 0.0000000000000000e+00 0.0000000000000000e+00  1.0714539213346415e+00 0.0000000000000000e+00 0.0000000000000000e+00  1.0786557295785393e+00 0.0000000000000000e+00 0.0000000000000000e+00  1.0853211501956757e+00 0.0000000000000000e+00 0.0000000000000000e+00  1.0916431562235964e+00 0.0000000000000000e+00 0.0000000000000000e+00  1.0953496062998049e+00 0.0000000000000000e+00 0.0000000000000000e+00  1.0979989336864220e+00 0.0000000000000000e+00 0.0000000000000000e+00  1.0985403390236546e+00 0.0000000000000000e+00 0.0000000000000000e+00  1.0975215499077127e+00 0.0000000000000000e+00 0.0000000000000000e+00  1.0934890850784587e+00 0.0000000000000000e+00 0.0000000000000000e+00  1.0886662760266086e+00 0.0000000000000000e+00 0.0000000000000000e+00  1.0820825126472133e+00 0.0000000000000000e+00 0.0000000000000000e+00  1.0744506812576915e+00 0.0000000000000000e+00 0.0000000000000000e+00  1.0670025511464918e+00 0.0000000000000000e+00 0.0000000000000000e+00  1.0600555255655442e+00 0.0000000000000000e+00 0.0000000000000000e+00  1.0546550890668902e+00 0.0000000000000000e+00 0.0000000000000000e+00  1.0509315034899602e+00 0.0000000000000000e+00 0.0000000000000000e+00  1.0492765463386571e+00 0.0000000000000000e+00 0.0000000000000000e+00  1.0509145888234546e+00 0.0000000000000000e+00 0.0000000000000000e+00  1.0545658024446607e+00 0.0000000000000000e+00 0.0000000000000000e+00  1.0577747003683244e+00 0.0000000000000000e+00 0.0000000000000000e+00  1.0614298006154419e+00 0.0000000000000000e+00 0.0000000000000000e+00  1.0635886160740813e+00 0.0000000000000000e+00 0.0000000000000000e+00  1.0635363724903892e+00 0.0000000000000000e+00 0.0000000000000000e+00  1.0616854085851690e+00 0.0000000000000000e+00 0.0000000000000000e+00  1.0574409104449600e+00 0.0000000000000000e+00 0.0000000000000000e+00  1.0522382188173831e+00 0.0000000000000000e+00 0.0000000000000000e+00  1.0472954736816305e+00 0.0000000000000000e+00 0.0000000000000000e+00  1.0426531539746264e+00 0.0000000000000000e+00 0.0000000000000000e+00  1.0397050105932490e+00 0.0000000000000000e+00 0.0000000000000000e+00  1.0406339081413913e+00 0.0000000000000000e+00 0.0000000000000000e+00  1.0428076241541686e+00 0.0000000000000000e+00 0.0000000000000000e+00  1.0466240141826018e+00 0.0000000000000000e+00 0.0000000000000000e+00  1.0525224192639411e+00 0.0000000000000000e+00 0.0000000000000000e+00  1.0573629077264353e+00 0.0000000000000000e+00 0.0000000000000000e+00  1.0608118486204801e+00 0.0000000000000000e+00 0.0000000000000000e+00  1.0636730961463885e+00 0.0000000000000000e+00 0.0000000000000000e+00  1.0633038561046373e+00 0.0000000000000000e+00 0.0000000000000000e+00  1.0606309495540365e+00 0.0000000000000000e+00 0.0000000000000000e+00  1.0573729916636276e+00 0.0000000000000000e+00 0.0000000000000000e+00  1.0530655605543029e+00 0.0000000000000000e+00 0.0000000000000000e+00  1.0494573373891052e+00 0.0000000000000000e+00 0.0000000000000000e+00  1.0480063643811370e+00 0.0000000000000000e+00 0.0000000000000000e+00  1.0475916453832790e+00 0.0000000000000000e+00 0.0000000000000000e+00  1.0488667358352399e+00 0.0000000000000000e+00 0.0000000000000000e+00  1.0542342241950713e+00 0.0000000000000000e+00 0.0000000000000000e+00  1.0582395873574968e+00 0.0000000000000000e+00 0.0000000000000000e+00  1.0604830816916477e+00 0.0000000000000000e+00 0.0000000000000000e+00  1.0626598099277360e+00 0.0000000000000000e+00 0.0000000000000000e+00  1.0646498640450750e+00 0.0000000000000000e+00 0.0000000000000000e+00  1.0637024054382425e+00 0.0000000000000000e+00 0.0000000000000000e+00  1.0580090071864954e+00 0.0000000000000000e+00 0.0000000000000000e+00  1.0537654506326124e+00 0.0000000000000000e+00 0.0000000000000000e+00  1.0504915085559450e+00 0.0000000000000000e+00 0.0000000000000000e+00  1.0497892114307399e+00 0.0000000000000000e+00 0.0000000000000000e+00  1.0512299542420336e+00 0.0000000000000000e+00 0.0000000000000000e+00  1.0538724445376566e+00 0.0000000000000000e+00 0.0000000000000000e+00  1.0578264246396376e+00 0.0000000000000000e+00 0.0000000000000000e+00  1.0620825455372864e+00 0.0000000000000000e+00 0.0000000000000000e+00  1.0657238143715662e+00 0.0000000000000000e+00 0.0000000000000000e+00  1.0672882196276827e+00 0.0000000000000000e+00 0.0000000000000000e+00  1.0676092472678080e+00 0.0000000000000000e+00 0.0000000000000000e+00  1.0659110297645706e+00 0.0000000000000000e+00 0.0000000000000000e+00  1.0628927506102634e+00 0.0000000000000000e+00 0.0000000000000000e+00  1.0601049361133656e+00 0.0000000000000000e+00 0.0000000000000000e+00  1.0579231534425240e+00 0.0000000000000000e+00 0.0000000000000000e+00  1.0577899475309054e+00 0.0000000000000000e+00 0.0000000000000000e+00  1.0589214864958134e+00 0.0000000000000000e+00 0.0000000000000000e+00  1.0626562136034916e+00 0.0000000000000000e+00 0.0000000000000000e+00  1.0677045414085897e+00 0.0000000000000000e+00 0.0000000000000000e+00  1.0741085647566799e+00 0.0000000000000000e+00 0.0000000000000000e+00  1.0794984522559536e+00 0.0000000000000000e+00 0.0000000000000000e+00  1.0841951258168288e+00 0.0000000000000000e+00 0.0000000000000000e+00  1.0860671256365557e+00 0.0000000000000000e+00 0.0000000000000000e+00  1.0883918476416954e+00 4.9944630967180021e-04 0.0000000000000000e+00  1.0923189397961537e+00 1.7130917658392669e-03 0.0000000000000000e+00  1.0999314219177461e+00 4.8098298246378570e-03 0.0000000000000000e+00  1.1122843681116181e+00 1.1954528414968140e-02 0.0000000000000000e+00  1.1328161198130864e+00 2.7670760764309164e-02 0.0000000000000000e+00  1.1498006968197958e+00 5.2816474732635871e-02 0.0000000000000000e+00  1.1418035657995689e+00 9.6423415131454832e-02 0.0000000000000000e+00  1.0901727294537926e+00 1.4646408559377502e-01 0.0000000000000000e+00  9.9180299120841930e-01 1.9943798841677288e-01 0.0000000000000000e+00  8.7254958204111044e-01 2.3344045044523501e-01 0.0000000000000000e+00  7.7449498176999820e-01 2.5349385618049697e-01 0.0000000000000000e+00  7.2704504620995258e-01 2.5491964348218421e-01 0.0000000000000000e+00  7.3771497332121205e-01 2.4739833299291103e-01 0.0000000000000000e+00  7.8844708963923649e-01 2.3973854279877335e-01 0.0000000000000000e+00  8.6241906492078035e-01 2.1631953472417134e-01 0.0000000000000000e+00  9.3265531634269361e-01 1.7624569755617037e-01 0.0000000000000000e+00  9.8250031333013221e-01 1.2809008936597582e-01 0.0000000000000000e+00  1.0158945639733816e+00 8.3531820848152374e-02 0.0000000000000000e+00  1.0409471075673107e+00 5.6667093787778872e-02 0.0000000000000000e+00  1.0593968556563900e+00 3.7719883226809324e-02 0.0000000000000000e+00  1.0696477249854619e+00 2.4762533719985037e-02 0.0000000000000000e+00  1.0753057464844917e+00 1.4920552268577235e-02 0.0000000000000000e+00  1.0772461248787835e+00 6.9087709986865101e-03 0.0000000000000000e+00  1.0714812802916849e+00 0.0000000000000000e+00 0.0000000000000000e+00  1.0680587180320800e+00 0.0000000000000000e+00 0.0000000000000000e+00  1.0668760258036110e+00 0.0000000000000000e+00 0.0000000000000000e+00  1.0678929785669518e+00 0.0000000000000000e+00 0.0000000000000000e+00  1.0691696647065847e+00 0.0000000000000000e+00 0.0000000000000000e+00  1.0707945311612728e+00 0.0000000000000000e+00 0.0000000000000000e+00  1.0717320661766596e+00 0.0000000000000000e+00 0.0000000000000000e+00  1.0712137015666725e+00 0.0000000000000000e+00 0.0000000000000000e+00  1.0682673327922267e+00 0.0000000000000000e+00 0.0000000000000000e+00  1.0642645588387749e+00 0.0000000000000000e+00 0.0000000000000000e+00  1.0595479205810929e+00 0.0000000000000000e+00 0.0000000000000000e+00  1.0550551376150976e+00 0.0000000000000000e+00 0.0000000000000000e+00  1.0519694431188480e+00 0.0000000000000000e+00 0.0000000000000000e+00  1.0515052793988282e+00 0.0000000000000000e+00 0.0000000000000000e+00  1.0523732591814574e+00 0.0000000000000000e+00 0.0000000000000000e+00  1.0558123959872114e+00 0.0000000000000000e+00 0.0000000000000000e+00  1.0588956362714825e+00 0.0000000000000000e+00 0.0000000000000000e+00  1.0623406230720362e+00 0.0000000000000000e+00 0.0000000000000000e+00  1.0643744033284785e+00 0.0000000000000000e+00 0.0000000000000000e+00  1.0652416830317415e+00 0.0000000000000000e+00 0.0000000000000000e+00  1.0639232271049794e+00 0.0000000000000000e+00 0.0000000000000000e+00  1.0604583064277606e+00 0.0000000000000000e+00 0.0000000000000000e+00  1.0567874356128224e+00 0.0000000000000000e+00 0.0000000000000000e+00  1.0493228186163175e+00 0.0000000000000000e+00 0.0000000000000000e+00  1.0480681439463271e+00 0.0000000000000000e+00 0.0000000000000000e+00  1.0477199648323354e+00 0.0000000000000000e+00 0.0000000000000000e+00  1.0507063616261934e+00 0.0000000000000000e+00 0.0000000000000000e+00  1.0558594704643709e+00 0.0000000000000000e+00 0.0000000000000000e+00  1.0600520374960414e+00 0.0000000000000000e+00 0.0000000000000000e+00  1.0617543702984626e+00 0.0000000000000000e+00 0.0000000000000000e+00  1.0640710129503688e+00 0.0000000000000000e+00 0.0000000000000000e+00  1.0640597929024966e+00 0.0000000000000000e+00 0.0000000000000000e+00  1.0610970207850783e+00 0.0000000000000000e+00 0.0000000000000000e+00  1.0571636850538229e+00 0.0000000000000000e+00 0.0000000000000000e+00  1.0524969459243294e+00 0.0000000000000000e+00 0.0000000000000000e+00  1.0474809329210832e+00 0.0000000000000000e+00 0.0000000000000000e+00  1.0446124611482914e+00 0.0000000000000000e+00 0.0000000000000000e+00  1.0436452123070221e+00 0.0000000000000000e+00 0.0000000000000000e+00  1.0439150825266605e+00 0.0000000000000000e+00 0.0000000000000000e+00  1.0474130532000503e+00 0.0000000000000000e+00 0.0000000000000000e+00  1.0520258856647366e+00 0.0000000000000000e+00 0.0000000000000000e+00  1.0560407523181936e+00 0.0000000000000000e+00 0.0000000000000000e+00  1.0600423938978270e+00 0.0000000000000000e+00 0.0000000000000000e+00  1.0620647800155854e+00 0.0000000000000000e+00 0.0000000000000000e+00  1.0606561431461630e+00 0.0000000000000000e+00 0.0000000000000000e+00  1.0582631892276984e+00 0.0000000000000000e+00 0.0000000000000000e+00  1.0540025794931986e+00 0.0000000000000000e+00 0.0000000000000000e+00  1.0480549560308119e+00 0.0000000000000000e+00 0.0000000000000000e+00  1.0430423985057657e+00 0.0000000000000000e+00 0.0000000000000000e+00  1.0394841469788250e+00 0.0000000000000000e+00 0.0000000000000000e+00  1.0378447710087617e+00 0.0000000000000000e+00 0.0000000000000000e+00  1.0391020758926885e+00 0.0000000000000000e+00 0.0000000000000000e+00  1.0427992524935272e+00 0.0000000000000000e+00 0.0000000000000000e+00  1.0479454103698347e+00 0.0000000000000000e+00 0.0000000000000000e+00  1.0548318342350529e+00 0.0000000000000000e+00 0.0000000000000000e+00  1.0604798739820585e+00 0.0000000000000000e+00 0.0000000000000000e+00  1.0656279499145669e+00 0.0000000000000000e+00 0.0000000000000000e+00  1.0700792132412504e+00 0.0000000000000000e+00 0.0000000000000000e+00  1.0726813649596625e+00 0.0000000000000000e+00 0.0000000000000000e+00  1.0733747993189389e+00 0.0000000000000000e+00 0.0000000000000000e+00  1.0728123665654710e+00 0.0000000000000000e+00 0.0000000000000000e+00  1.0725904159669524e+00 0.0000000000000000e+00 0.0000000000000000e+00  1.0737231939440484e+00 0.0000000000000000e+00 0.0000000000000000e+00  1.0750372312449776e+00 0.0000000000000000e+00 0.0000000000000000e+00  1.0771837495703769e+00 0.0000000000000000e+00 0.0000000000000000e+00  1.0813974908237884e+00 0.0000000000000000e+00 0.0000000000000000e+00  1.0839874813102861e+00 0.0000000000000000e+00 0.0000000000000000e+00  1.0867710101536627e+00 0.0000000000000000e+00 0.0000000000000000e+00  1.0878937535564608e+00 0.0000000000000000e+00 0.0000000000000000e+00  1.0866347847381539e+00 0.0000000000000000e+00 0.0000000000000000e+00  1.0835971202986978e+00 0.0000000000000000e+00 0.0000000000000000e+00  1.0790797964871626e+00 0.0000000000000000e+00 0.0000000000000000e+00  1.0730825741019538e+00 0.0000000000000000e+00 0.0000000000000000e+00  1.0653010413069255e+00 0.0000000000000000e+00 0.0000000000000000e+00  1.0579683247256173e+00 0.0000000000000000e+00 0.0000000000000000e+00  1.0498231363772734e+00 0.0000000000000000e+00 0.0000000000000000e+00  1.0342635358052428e+00 0.0000000000000000e+00 0.0000000000000000e+00  1.0275843705046235e+00 0.0000000000000000e+00 0.0000000000000000e+00  1.0222951776744642e+00 0.0000000000000000e+00 0.0000000000000000e+00  1.0175590337353515e+00 0.0000000000000000e+00 0.0000000000000000e+00  1.0136851350645253e+00 0.0000000000000000e+00 0.0000000000000000e+00  1.0106215643156840e+00 0.0000000000000000e+00 0.0000000000000000e+00  1.0082665896054397e+00 0.0000000000000000e+00 0.0000000000000000e+00  1.0059655742377243e+00 0.0000000000000000e+00 0.0000000000000000e+00  1.0043288102184211e+00 0.0000000000000000e+00 0.0000000000000000e+00  1.0031429167890207e+00 0.0000000000000000e+00 0.0000000000000000e+00  1.0018006908948935e+00 0.0000000000000000e+00 0.0000000000000000e+00  1.0015037199040653e+00 0.0000000000000000e+00 0.0000000000000000e+00  1.0003265379571398e+00 0.0000000000000000e+00 0.0000000000000000e+00  1.0002221640470295e+00 0.0000000000000000e+00 0.0000000000000000e+00  9.9978371855030901e-01 0.0000000000000000e+00 0.0000000000000000e+00  1.0004487551712187e+00 0.0000000000000000e+00 0.0000000000000000e+00  1.0002215477776302e+00 0.0000000000000000e+00 0.0000000000000000e+00  9.9979204120763199e-01 0.0000000000000000e+00 0.0000000000000000e+00  1.0000001317187428e+00 0.0000000000000000e+00 0.0000000000000000e+00  1.0000001317187428e+00 0.0000000000000000e+00 0.0000000000000000e+00  1.0000001317187428e+00 0.0000000000000000e+00 0.0000000000000000e+00  1.0000001317187428e+00 0.0000000000000000e+00 0.0000000000000000e+00  1.0000001317187428e+00 0.0000000000000000e+00 0.0000000000000000e+00  1.0000001317187428e+00 0.0000000000000000e+00 0.0000000000000000e+00  1.0000001317187428e+00 0.0000000000000000e+00 0.0000000000000000e+00  1.0000001317187428e+00 0.0000000000000000e+00 0.0000000000000000e+00  1.0000001317187428e+00 0.0000000000000000e+00 0.0000000000000000e+00  1.0000001317187428e+00 0.0000000000000000e+00 0.0000000000000000e+00  1.0000001317187428e+00 0.0000000000000000e+00 0.0000000000000000e+00  1.0000001317187428e+00 0.0000000000000000e+00 0.0000000000000000e+00  1.0000001317187428e+00 0.0000000000000000e+00 0.0000000000000000e+00  1.0000001317187428e+00 0.0000000000000000e+00 0.0000000000000000e+00  1.0000001317187428e+00 0.0000000000000000e+00 0.0000000000000000e+00  1.0000001317187428e+00 0.0000000000000000e+00 0.0000000000000000e+00  1.0000001317187428e+00 0.0000000000000000e+00 0.0000000000000000e+00  1.0000001317187428e+00 0.0000000000000000e+00 0.0000000000000000e+00  1.0000001317187428e+00 0.0000000000000000e+00 0.0000000000000000e+00  1.0000001317187428e+00 0.0000000000000000e+00 0.0000000000000000e+00  1.0382906858737164e+00 -9.0826842414965490e-03 0.0000000000000000e+00  1.0352600920820010e+00 -1.8337910925244411e-02 0.0000000000000000e+00  1.0330121679290170e+00 -2.8334933882864080e-02 0.0000000000000000e+00  1.0273550193163310e+00 -3.8659909575659360e-02 0.0000000000000000e+00  1.0216317418655176e+00 -5.2674568688426245e-02 0.0000000000000000e+00  1.0259049786765071e+00 -5.5860407974970244e-02 0.0000000000000000e+00  1.0297393133548929e+00 -5.9115409934810785e-02 0.0000000000000000e+00  1.0345611285538172e+00 -6.2049228027681640e-02 0.0000000000000000e+00  1.0395909970882926e+00 -6.4832736883712716e-02 0.0000000000000000e+00  1.0451902337213963e+00 -6.7180833225971653e-02 0.0000000000000000e+00  1.0513049151726783e+00 -6.9182932478139739e-02 0.0000000000000000e+00  1.0577529914433188e+00 -7.0531675162909632e-02 0.0000000000000000e+00  1.0646372017810650e+00 -7.1336583479703938e-02 0.0000000000000000e+00  1.0714957980280655e+00 -7.1283940081501032e-02 0.0000000000000000e+00  1.0785571715927986e+00 -7.0650020402668670e-02 0.0000000000000000e+00  1.0854643070323935e+00 -6.9354383526095867e-02 0.0000000000000000e+00  1.0923253626522247e+00 -6.7077115005160948e-02 0.0000000000000000e+00  1.0986404195235093e+00 -6.4009187628014344e-02 0.0000000000000000e+00  1.1044696849692659e+00 -6.0492327126741199e-02 0.0000000000000000e+00  1.1096962029291204e+00 -5.6427249375970920e-02 0.0000000000000000e+00  1.1141728223155694e+00 -5.2004682246062604e-02 0.0000000000000000e+00  1.1178598158847282e+00 -4.7338000386746355e-02 0.0000000000000000e+00  1.1209077712245497e+00 -4.2730153692601573e-02 0.0000000000000000e+00  1.1232484464282082e+00 -3.8048087089134978e-02 0.0000000000000000e+00  1.1250295909464592e+00 -3.3860819338976222e-02 0.0000000000000000e+00  1.1263367787924177e+00 -2.9666558465666331e-02 0.0000000000000000e+00  1.1273115840574277e+00 -2.5896903134438792e-02 0.0000000000000000e+00  1.1282199559875956e+00 -2.2623623019979042e-02 0.0000000000000000e+00  1.1290967431909738e+00 -1.9695749524456695e-02 0.0000000000000000e+00  1.1300786676816992e+00 -1.7015844371677309e-02 0.0000000000000000e+00  1.1312880386056672e+00 -1.4356637171032808e-02 0.0000000000000000e+00  1.1328318401684156e+00 -1.1686534232232721e-02 0.0000000000000000e+00  1.1345746206999583e+00 -8.7489033928645158e-03 0.0000000000000000e+00  1.1366320024597161e+00 -5.3738909190365856e-03 0.0000000000000000e+00  1.1387702810661495e+00 -1.4392386887529087e-03 0.0000000000000000e+00  1.1408436675530687e+00 3.2471270656990727e-03 