<?xml version="1.0"?>
<VTKFile type="UnstructuredGrid"  version="0.1"  >
<UnstructuredGrid>
<Piece  NumberOfPoints="10199" NumberOfCells="20110">
<Points>
<DataArray  type="Float64"  NumberOfComponents="3"  format="ascii">0 -5 0  8 -5 0  30 -5 0  40 -5 0  40 5 0  30 5 0  8 5 0  0 5 0  8 -2.5 0  15 -2.5 0  30 -2.5 0  30 2.5 0  15 2.5 0  8 2.5 0  10 0.5 0  10 -0.5 0  0 0 0  0.4210526315780956 -5 0  0.8421052631563433 -5 0  1.263157894734281 -5 0  1.684210526311999 -5 0  2.105263157889717 -5 0  2.526315789467435 -5 0  2.947368421045153 -5 0  3.368421052622872 -5 0  3.78947368420059 -5 0  4.210526315779479 -5 0  4.631578947359537 -5 0  5.052631578939595 -5 0  5.473684210519653 -5 0  5.89473684209971 -5 0  6.315789473679768 -5 0  6.736842105259826 -5 0  7.157894736839884 -5 0  7.578947368419942 -5 0  8.407407407405314 -5 0  8.814814814810628 -5 0  9.222222222215942 -5 0  9.629629629621256 -5 0  10.03703703702657 -5 0  10.44444444443188 -5 0  10.8518518518372 -5 0  11.25925925924251 -5 0  11.66666666664783 -5 0  12.07407407405314 -5 0  12.48148148145846 -5 0  12.88888888886377 -5 0  13.29629629626908 -5 0  13.7037037036744 -5 0  14.11111111107971 -5 0  14.51851851848502 -5 0  14.92592592589034 -5 0  15.33333333329565 -5 0  15.74074074070096 -5 0  16.14814814810754 -5 0  16.55555555551614 -5 0  16.96296296292474 -5 0  17.37037037033335 -5 0  17.77777777774195 -5 0  18.18518518515056 -5 0  18.59259259255916 -5 0  18.99999999996776 -5 0  19.40740740737636 -5 0  19.81481481478497 -5 0  20.22222222219357 -5 0  20.62962962960217 -5 0  21.03703703701077 -5 0  21.44444444441937 -5 0  21.85185185182797 -5 0  22.25925925923657 -5 0  22.66666666664518 -5 0  23.07407407405378 -5 0  23.48148148146238 -5 0  23.88888888887098 -5 0  24.29629629627958 -5 0  24.70370370368818 -5 0  25.11111111109678 -5 0  25.51851851850539 -5 0  25.92592592591399 -5 0  26.33333333332259 -5 0  26.74074074073119 -5 0  27.14814814813979 -5 0  27.55555555554839 -5 0  27.96296296295699 -5 0  28.3703703703656 -5 0  28.7777777777742 -5 0  29.1851851851828 -5 0  29.5925925925914 -5 0  30.41666666667852 -5 0  30.83333333335704 -5 0  31.25000000003556 -5 0  31.66666666671408 -5 0  32.08333333338936 -5 0  32.50000000005308 -5 0  32.9166666667168 -5 0  33.33333333338052 -5 0  33.75000000004424 -5 0  34.16666666670795 -5 0  34.58333333337167 -5 0  35.00000000003539 -5 0  35.41666666669911 -5 0  35.83333333336282 -5 0  36.25000000002654 -5 0  36.66666666669026 -5 0  37.08333333335398 -5 0  37.50000000001769 -5 0  37.91666666668141 -5 0  38.33333333334513 -5 0  38.75000000000885 -5 0  39.16666666667257 -5 0  39.58333333333628 -5 0  40 -4.583333333332821 0  40 -4.166666666665642 0  40 -3.74999999999855 0  40 -3.333333333333135 0  40 -2.916666666667806 0  40 -2.500000000002478 0  40 -2.083333333337148 0  40 -1.666666666671818 0  40 -1.250000000006488 0  40 -0.8333333333405228 0  40 -0.4166666666733416 0  40 -6.163070054299169e-12 0  40 0.4166666666610173 0  40 0.8333333333281976 0  40 1.249999999995378 0  40 1.666666666662558 0  40 2.083333333329739 0  40 2.499999999996919 0  40 2.916666666664099 0  40 3.33333333333128 0  40 3.74999999999846 0  40 4.166666666665641 0  40 4.583333333332821 0  39.58333333333628 5 0  39.16666666667256 5 0  38.75000000000885 5 0  38.33333333334513 5 0  37.91666666668141 5 0  37.50000000001769 5 0  37.08333333335398 5 0  36.66666666669025 5 0  36.25000000002654 5 0  35.83333333336282 5 0  35.41666666669911 5 0  35.00000000003539 5 0  34.58333333337167 5 0  34.16666666670795 5 0  33.75000000004424 5 0  33.33333333338052 5 0  32.9166666667168 5 0  32.50000000005308 5 0  32.08333333338936 5 0  31.66666666671408 5 0  31.25000000003556 5 0  30.83333333335704 5 0  30.41666666667852 5 0  29.59259259259259 5 0  29.18518518518519 5 0  28.77777777777778 5 0  28.37037037037037 5 0  27.96296296296296 5 0  27.55555555555556 5 0  27.14814814814815 5 0  26.74074074074074 5 0  26.33333333333333 5 0  25.92592592592593 5 0  25.51851851851852 5 0  25.11111111111111 5 0  24.7037037037037 5 0  24.2962962962963 5 0  23.88888888888889 5 0  23.48148148148148 5 0  23.07407407407408 5 0  22.66666666666667 5 0  22.25925925925926 5 0  21.85185185185185 5 0  21.44444444444445 5 0  21.03703703703704 5 0  20.62962962962963 5 0  20.22222222222222 5 0  19.81481481481482 5 0  19.40740740740741 5 0  19 5 0  18.5925925925926 5 0  18.18518518518519 5 0  17.77777777777778 5 0  17.37037037037037 5 0  16.96296296296296 5 0  16.55555555555556 5 0  16.14814814814815 5 0  15.74074074074074 5 0  15.33333333333333 5 0  14.92592592592593 5 0  14.51851851851852 5 0  14.11111111111111 5 0  13.70370370370371 5 0  13.2962962962963 5 0  12.88888888888889 5 0  12.48148148148148 5 0  12.07407407407408 5 0  11.66666666666667 5 0  11.25925925925926 5 0  10.85185185185185 5 0  10.44444444444445 5 0  10.03703703703704 5 0  9.629629629629633 5 0  9.222222222222221 5 0  8.814814814814817 5 0  8.407407407407408 5 0  7.5789473684193 5 0  7.157894736838599 5 0  6.73684210526082 5 0  6.315789473684795 5 0  5.894736842108769 5 0  5.473684210532742 5 0  5.052631578956715 5 0  4.631578947380689 5 0  4.210526315804662 5 0  3.789473684226299 5 0  3.368421052645599 5 0  2.947368421064898 5 0  2.526315789484198 5 0  2.105263157903499 5 0  1.6842105263228 5 0  1.2631578947421 5 0  0.8421052631613994 5 0  0.4210526315806993 5 0  0 4.545454545454545 0  0 4.09090909090909 0  0 3.636363636363634 0  0 3.18181818181818 0  0 2.727272727272726 0  0 2.272727272727271 0  0 1.818181818181817 0  0 1.363636363636363 0  0 0.9090909090909092 0  0 0.454545454545455 0  0 -0.4545454545450807 0  0 -0.9090909090895867 0  0 -1.363636363633713 0  0 -1.818181818177841 0  0 -2.272727272723127 0  0 -2.727272727269273 0  0 -3.181818181815419 0  0 -3.636363636361564 0  0 -4.090909090907709 0  0 -4.545454545453855 0  8 -4.499999999999999 0  8 -3.999999999999999 0  8 -3.499999999999999 0  8 -3 0  8.137254901963859 -2.5 0  8.274509803926303 -2.5 0  8.411764705886863 -2.5 0  8.549019607849138 -2.5 0  8.686274509809513 -2.5 0  8.82352941176989 -2.5 0  8.960784313730265 -2.5 0  9.098039215690642 -2.5 0  9.235294117651017 -2.5 0  9.372549019611395 -2.5 0  9.50980392157177 -2.5 0  9.647058823532147 -2.5 0  9.784313725492522 -2.5 0  9.921568627452897 -2.5 0  10.05882352941327 -2.5 0  10.19607843137365 -2.5 0  10.33333333333402 -2.5 0  10.4705882352944 -2.5 0  10.60784313725478 -2.5 0  10.74509803921515 -2.5 0  10.88235294117553 -2.5 0  11.0196078431359 -2.5 0  11.15686274509628 -2.5 0  11.29411764705665 -2.5 0  11.43137254901703 -2.5 0  11.56862745097915 -2.5 0  11.70588235294301 -2.5 0  11.84313725490686 -2.5 0  11.98039215687072 -2.5 0  12.11764705883209 -2.5 0  12.25490196079247 -2.5 0  12.39215686275285 -2.5 0  12.52941176471322 -2.5 0  12.6666666666736 -2.5 0  12.80392156863397 -2.5 0  12.94117647059435 -2.5 0  13.07843137255473 -2.5 0  13.2156862745151 -2.5 0  13.35294117647548 -2.5 0  13.49019607843586 -2.5 0  13.62745098039623 -2.5 0  13.76470588235661 -2.5 0  13.90196078431699 -2.5 0  14.03921568627736 -2.5 0  14.17647058823774 -2.5 0  14.31372549019812 -2.5 0  14.45098039215849 -2.5 0  14.58823529411887 -2.5 0  14.72549019607925 -2.5 0  14.86274509803962 -2.5 0  15.20270270270254 -2.5 0  15.40540540540509 -2.5 0  15.60810810810763 -2.5 0  15.81081081081017 -2.5 0  16.01351351351227 -2.5 0  16.21621621621265 -2.5 0  16.41891891891279 -2.5 0  16.62162162161294 -2.5 0  16.82432432431308 -2.5 0  17.02702702701322 -2.5 0  17.22972972971337 -2.5 0  17.43243243241351 -2.5 0  17.63513513511365 -2.5 0  17.83783783781379 -2.5 0  18.04054054051394 -2.5 0  18.24324324321408 -2.5 0  18.44594594591422 -2.5 0  18.64864864861436 -2.5 0  18.85135135131451 -2.5 0  19.05405405401465 -2.5 0  19.25675675671479 -2.5 0  19.45945945941494 -2.5 0  19.66216216211508 -2.5 0  19.86486486481522 -2.5 0  20.06756756751536 -2.5 0  20.27027027021551 -2.5 0  20.47297297291565 -2.5 0  20.6756756756158 -2.5 0  20.87837837831594 -2.5 0  21.08108108101608 -2.5 0  21.28378378371622 -2.5 0  21.48648648641637 -2.5 0  21.68918918911651 -2.5 0  21.89189189181666 -2.5 0  22.0945945945168 -2.5 0  22.29729729721694 -2.5 0  22.49999999991778 -2.5 0  22.70270270262203 -2.5 0  22.90540540532697 -2.5 0  23.10810810803191 -2.5 0  23.31081081073686 -2.5 0  23.5135135134418 -2.5 0  23.71621621614674 -2.5 0  23.91891891885169 -2.5 0  24.12162162155663 -2.5 0  24.32432432426158 -2.5 0  24.52702702696652 -2.5 0  24.72972972967146 -2.5 0  24.93243243237641 -2.5 0  25.13513513508135 -2.5 0  25.3378378377863 -2.5 0  25.54054054049124 -2.5 0  25.74324324319618 -2.5 0  25.94594594590112 -2.5 0  26.14864864860607 -2.5 0  26.35135135131101 -2.5 0  26.55405405401596 -2.5 0  26.7567567567209 -2.5 0  26.95945945942584 -2.5 0  27.16216216213079 -2.5 0  27.36486486483573 -2.5 0  27.56756756754068 -2.5 0  27.77027027024562 -2.5 0  27.97297297295056 -2.5 0  28.1756756756555 -2.5 0  28.37837837836045 -2.5 0  28.5810810810654 -2.5 0  28.78378378377034 -2.5 0  28.98648648647528 -2.5 0  29.18918918918023 -2.5 0  29.39189189188517 -2.5 0  29.59459459459011 -2.5 0  29.79729729729506 -2.5 0  30 -3.000000000000001 0  30 -3.500000000000001 0  30 -4.000000000000001 0  30 -4.5 0  8 4.499999999999999 0  8 3.999999999999999 0  8 3.499999999999999 0  8 3 0  8.137254901963859 2.5 0  8.274509803926303 2.5 0  8.411764705886863 2.5 0  8.549019607849138 2.5 0  8.686274509809513 2.5 0  8.82352941176989 2.5 0  8.960784313730265 2.5 0  9.098039215690642 2.5 0  9.235294117651017 2.5 0  9.372549019611395 2.5 0  9.50980392157177 2.5 0  9.647058823532147 2.5 0  9.784313725492522 2.5 0  9.921568627452897 2.5 0  10.05882352941327 2.5 0  10.19607843137365 2.5 0  10.33333333333402 2.5 0  10.4705882352944 2.5 0  10.60784313725478 2.5 0  10.74509803921515 2.5 0  10.88235294117553 2.5 0  11.0196078431359 2.5 0  11.15686274509628 2.5 0  11.29411764705665 2.5 0  11.43137254901703 2.5 0  11.56862745097915 2.5 0  11.70588235294301 2.5 0  11.84313725490686 2.5 0  11.98039215687072 2.5 0  12.11764705883209 2.5 0  12.25490196079247 2.5 0  1
[...]
<PointData  Vectors="f_17"> 
<DataArray  type="Float64"  Name="f_17"  NumberOfComponents="3" format="ascii">1.0000001305871193e+00 0.0000000000000000e+00 0.0000000000000000e+00  1.0426432985162959e+00 0.0000000000000000e+00 0.0000000000000000e+00  1.0547237189626208e+00 0.0000000000000000e+00 0.0000000000000000e+00  1.0850210084811676e+00 0.0000000000000000e+00 0.0000000000000000e+00  1.0893739029585032e+00 0.0000000000000000e+00 0.0000000000000000e+00  1.0619890533276308e+00 0.0000000000000000e+00 0.0000000000000000e+00  1.0382438739055682e+00 0.0000000000000000e+00 0.0000000000000000e+00  1.0000001305871193e+00 0.0000000000000000e+00 0.0000000000000000e+00  1.0242826099082676e+00 -5.2498447504854953e-02 0.0000000000000000e+00  1.1163459178217565e+00 -4.2237317820290436e-02 0.0000000000000000e+00  1.0482512041320409e+00 -8.1738266106632179e-02 0.0000000000000000e+00  1.0780958218271142e+00 -7.2288688571836249e-02 0.0000000000000000e+00  1.0139042842028394e+00 -7.5250629422473583e-02 0.0000000000000000e+00  1.0185048837097175e+00 4.9121002518934073e-02 0.0000000000000000e+00  0.0000000000000000e+00 0.0000000000000000e+00 0.0000000000000000e+00  0.0000000000000000e+00 0.0000000000000000e+00 0.0000000000000000e+00  1.0000001305871193e+00 0.0000000000000000e+00 0.0000000000000000e+00  9.9928999180312361e-01 0.0000000000000000e+00 0.0000000000000000e+00  9.9873473247519839e-01 0.0000000000000000e+00 0.0000000000000000e+00  1.0008100710421839e+00 0.0000000000000000e+00 0.0000000000000000e+00  1.0006650343581607e+00 0.0000000000000000e+00 0.0000000000000000e+00  1.0017128758819323e+00 0.0000000000000000e+00 0.0000000000000000e+00  1.0021346553806876e+00 0.0000000000000000e+00 0.0000000000000000e+00  1.0025652434452790e+00 0.0000000000000000e+00 0.0000000000000000e+00  1.0035353000044982e+00 0.0000000000000000e+00 0.0000000000000000e+00  1.0048939103993588e+00 0.0000000000000000e+00 0.0000000000000000e+00  1.0061368250897229e+00 0.0000000000000000e+00 0.0000000000000000e+00  1.0076970868758153e+00 0.0000000000000000e+00 0.0000000000000000e+00  1.0099905740653010e+00 0.0000000000000000e+00 0.0000000000000000e+00  1.0123691513466795e+00 0.0000000000000000e+00 0.0000000000000000e+00  1.0162979072513165e+00 0.0000000000000000e+00 0.0000000000000000e+00  1.0180160169661074e+00 0.0000000000000000e+00 0.0000000000000000e+00  1.0225572005881958e+00 0.0000000000000000e+00 0.0000000000000000e+00  1.0292958869782780e+00 0.0000000000000000e+00 0.0000000000000000e+00  1.0347121956937513e+00 0.0000000000000000e+00 0.0000000000000000e+00  1.0505665868740808e+00 0.0000000000000000e+00 0.0000000000000000e+00  1.0588127239953318e+00 0.0000000000000000e+00 0.0000000000000000e+00  1.0662964893015363e+00 0.0000000000000000e+00 0.0000000000000000e+00  1.0739338508447660e+00 0.0000000000000000e+00 0.0000000000000000e+00  1.0796498993447723e+00 0.0000000000000000e+00 0.0000000000000000e+00  1.0841184841176921e+00 0.0000000000000000e+00 0.0000000000000000e+00  1.0875837681158442e+00 0.0000000000000000e+00 0.0000000000000000e+00  1.0879691165102656e+00 0.0000000000000000e+00 0.0000000000000000e+00  1.0871909840999965e+00 0.0000000000000000e+00 0.0000000000000000e+00  1.0848884844172864e+00 0.0000000000000000e+00 0.0000000000000000e+00  1.0822753856552036e+00 0.0000000000000000e+00 0.0000000000000000e+00  1.0786578580974540e+00 0.0000000000000000e+00 0.0000000000000000e+00  1.0766517762284920e+00 0.0000000000000000e+00 0.0000000000000000e+00  1.0753880094174797e+00 0.0000000000000000e+00 0.0000000000000000e+00  1.0747770364349996e+00 0.0000000000000000e+00 0.0000000000000000e+00  1.0749910734391250e+00 0.0000000000000000e+00 0.0000000000000000e+00  1.0748982631820483e+00 0.0000000000000000e+00 0.0000000000000000e+00  1.0739354209553031e+00 0.0000000000000000e+00 0.0000000000000000e+00  1.0711237936374163e+00 0.0000000000000000e+00 0.0000000000000000e+00  1.0662711315745492e+00 0.0000000000000000e+00 0.0000000000000000e+00  1.0610037135957204e+00 0.0000000000000000e+00 0.0000000000000000e+00  1.0552683274416303e+00 0.0000000000000000e+00 0.0000000000000000e+00  1.0482888159916803e+00 0.0000000000000000e+00 0.0000000000000000e+00  1.0432390299530270e+00 0.0000000000000000e+00 0.0000000000000000e+00  1.0398388207586164e+00 0.0000000000000000e+00 0.0000000000000000e+00  1.0388118686821433e+00 0.0000000000000000e+00 0.0000000000000000e+00  1.0407680481720445e+00 0.0000000000000000e+00 0.0000000000000000e+00  1.0445166340103338e+00 0.0000000000000000e+00 0.0000000000000000e+00  1.0496587297894853e+00 0.0000000000000000e+00 0.0000000000000000e+00  1.0555576387101719e+00 0.0000000000000000e+00 0.0000000000000000e+00  1.0596336806660811e+00 0.0000000000000000e+00 0.0000000000000000e+00  1.0617275064667380e+00 0.0000000000000000e+00 0.0000000000000000e+00  1.0628365730403564e+00 0.0000000000000000e+00 0.0000000000000000e+00  1.0605426057912715e+00 0.0000000000000000e+00 0.0000000000000000e+00  1.0563355985562384e+00 0.0000000000000000e+00 0.0000000000000000e+00  1.0522873209034662e+00 0.0000000000000000e+00 0.0000000000000000e+00  1.0477590988400995e+00 0.0000000000000000e+00 0.0000000000000000e+00  1.0443609936372009e+00 0.0000000000000000e+00 0.0000000000000000e+00  1.0444614242662262e+00 0.0000000000000000e+00 0.0000000000000000e+00  1.0457072742036855e+00 0.0000000000000000e+00 0.0000000000000000e+00  1.0487918696120446e+00 0.0000000000000000e+00 0.0000000000000000e+00  1.0539364506690667e+00 0.0000000000000000e+00 0.0000000000000000e+00  1.0586090138224746e+00 0.0000000000000000e+00 0.0000000000000000e+00  1.0624268942995343e+00 0.0000000000000000e+00 0.0000000000000000e+00  1.0652492425104694e+00 0.0000000000000000e+00 0.0000000000000000e+00  1.0650528280867382e+00 0.0000000000000000e+00 0.0000000000000000e+00  1.0624775051048128e+00 0.0000000000000000e+00 0.0000000000000000e+00  1.0608922998845449e+00 0.0000000000000000e+00 0.0000000000000000e+00  1.0568207361540809e+00 0.0000000000000000e+00 0.0000000000000000e+00  1.0515082399913636e+00 0.0000000000000000e+00 0.0000000000000000e+00  1.0487316263307489e+00 0.0000000000000000e+00 0.0000000000000000e+00  1.0493779408492547e+00 0.0000000000000000e+00 0.0000000000000000e+00  1.0511016303263581e+00 0.0000000000000000e+00 0.0000000000000000e+00  1.0590075923136197e+00 0.0000000000000000e+00 0.0000000000000000e+00  1.0623370068560816e+00 0.0000000000000000e+00 0.0000000000000000e+00  1.0646647938758043e+00 0.0000000000000000e+00 0.0000000000000000e+00  1.0662891502403755e+00 0.0000000000000000e+00 0.0000000000000000e+00  1.0658059299961524e+00 0.0000000000000000e+00 0.0000000000000000e+00  1.0633840629812048e+00 0.0000000000000000e+00 0.0000000000000000e+00  1.0598569370584183e+00 0.0000000000000000e+00 0.0000000000000000e+00  1.0568247403739268e+00 0.0000000000000000e+00 0.0000000000000000e+00  1.0546764542202485e+00 0.0000000000000000e+00 0.0000000000000000e+00  1.0538764190157732e+00 0.0000000000000000e+00 0.0000000000000000e+00  1.0554866529895859e+00 0.0000000000000000e+00 0.0000000000000000e+00  1.0587630994624480e+00 0.0000000000000000e+00 0.0000000000000000e+00  1.0627343848796198e+00 0.0000000000000000e+00 0.0000000000000000e+00  1.0674044148208939e+00 0.0000000000000000e+00 0.0000000000000000e+00  1.0711899661340598e+00 0.0000000000000000e+00 0.0000000000000000e+00  1.0741319861903991e+00 0.0000000000000000e+00 0.0000000000000000e+00  1.0744298711342744e+00 0.0000000000000000e+00 0.0000000000000000e+00  1.0739801381380947e+00 0.0000000000000000e+00 0.0000000000000000e+00  1.0725318185014225e+00 0.0000000000000000e+00 0.0000000000000000e+00  1.0719710487707619e+00 0.0000000000000000e+00 0.0000000000000000e+00  1.0718798787186803e+00 0.0000000000000000e+00 0.0000000000000000e+00  1.0743995781759139e+00 0.0000000000000000e+00 0.0000000000000000e+00  1.0782597586241014e+00 0.0000000000000000e+00 0.0000000000000000e+00  1.0849342603207841e+00 -7.5483118102895250e-03 0.0000000000000000e+00  1.0835727685078456e+00 -1.6301469061934821e-02 0.0000000000000000e+00  1.0801909327508838e+00 -2.7348518373411894e-02 0.0000000000000000e+00  1.0710219290270548e+00 -4.1931124528591525e-02 0.0000000000000000e+00  1.0556432005096905e+00 -6.4165975687110202e-02 0.0000000000000000e+00  1.0325428749855092e+00 -9.5677441538115429e-02 0.0000000000000000e+00  1.0000002403318859e+00 -1.4685273488138037e-01 0.0000000000000000e+00  9.4719384803918238e-01 -1.9824449645818676e-01 0.0000000000000000e+00  8.6938749718933728e-01 -2.3812031421838281e-01 0.0000000000000000e+00  7.8781070703547407e-01 -2.5898020443304698e-01 0.0000000000000000e+00  7.3121682489542783e-01 -2.6425516011915767e-01 0.0000000000000000e+00  7.2017573073383989e-01 -2.6235322771530961e-01 0.0000000000000000e+00  7.6141727845983642e-01 -2.5835674962629956e-01 0.0000000000000000e+00  8.5329347920256748e-01 -2.4546336716906952e-01 0.0000000000000000e+00  9.7044969243599755e-01 -2.1342656012271782e-01 0.0000000000000000e+00  1.0717058396994823e+00 -1.6008222623616122e-01 0.0000000000000000e+00  1.1260039470052592e+00 -1.0738568634994843e-01 0.0000000000000000e+00  1.1383070435037745e+00 -6.0724174453952472e-02 0.0000000000000000e+00  1.1252278808409597e+00 -3.2880121937588241e-02 0.0000000000000000e+00  1.1093696044027344e+00 -1.5135476045090463e-02 0.0000000000000000e+00  1.0989188598591024e+00 -6.3878645370597032e-03 0.0000000000000000e+00  1.0940387881902336e+00 -2.4320563486431353e-03 0.0000000000000000e+00  1.0908392795953734e+00 -8.3132479539946367e-04 0.0000000000000000e+00  1.0891382818529642e+00 0.0000000000000000e+00 0.0000000000000000e+00  1.0873645274169916e+00 0.0000000000000000e+00 0.0000000000000000e+00  1.0837035266430128e+00 0.0000000000000000e+00 0.0000000000000000e+00  1.0788435715959022e+00 0.0000000000000000e+00 0.0000000000000000e+00  1.0726833943839609e+00 0.0000000000000000e+00 0.0000000000000000e+00  1.0674430191155160e+00 0.0000000000000000e+00 0.0000000000000000e+00  1.0636048658808399e+00 0.0000000000000000e+00 0.0000000000000000e+00  1.0619131539761504e+00 0.0000000000000000e+00 0.0000000000000000e+00  1.0616282258343632e+00 0.0000000000000000e+00 0.0000000000000000e+00  1.0633179171406484e+00 0.0000000000000000e+00 0.0000000000000000e+00  1.0658368458175327e+00 0.0000000000000000e+00 0.0000000000000000e+00  1.0681927353970659e+00 0.0000000000000000e+00 0.0000000000000000e+00  1.0696699732050730e+00 0.0000000000000000e+00 0.0000000000000000e+00  1.0702867367159483e+00 0.0000000000000000e+00 0.0000000000000000e+00  1.0682536516963363e+00 0.0000000000000000e+00 0.0000000000000000e+00  1.0657093026741906e+00 0.0000000000000000e+00 0.0000000000000000e+00  1.0608802688912535e+00 0.0000000000000000e+00 0.0000000000000000e+00  1.0565951144694772e+00 0.0000000000000000e+00 0.0000000000000000e+00  1.0531183961412467e+00 0.0000000000000000e+00 0.0000000000000000e+00  1.0518746875576797e+00 0.0000000000000000e+00 0.0000000000000000e+00  1.0523865707991504e+00 0.0000000000000000e+00 0.0000000000000000e+00  1.0544770687631617e+00 0.0000000000000000e+00 0.0000000000000000e+00  1.0581847191729665e+00 0.0000000000000000e+00 0.0000000000000000e+00  1.0641251158037948e+00 0.0000000000000000e+00 0.0000000000000000e+00  1.0654598747337818e+00 0.0000000000000000e+00 0.0000000000000000e+00  1.0637248392696048e+00 0.0000000000000000e+00 0.0000000000000000e+00  1.0616199346438957e+00 0.0000000000000000e+00 0.0000000000000000e+00  1.0590324401609654e+00 0.0000000000000000e+00 0.0000000000000000e+00  1.0549275779148384e+00 0.0000000000000000e+00 0.0000000000000000e+00  1.0494299709080230e+00 0.0000000000000000e+00 0.0000000000000000e+00  1.0476747079061086e+00 0.0000000000000000e+00 0.0000000000000000e+00  1.0477029446241535e+00 0.0000000000000000e+00 0.0000000000000000e+00  1.0488668268461572e+00 0.0000000000000000e+00 0.0000000000000000e+00  1.0522547093952643e+00 0.0000000000000000e+00 0.0000000000000000e+00  1.0565084601000154e+00 0.0000000000000000e+00 0.0000000000000000e+00  1.0598953625159351e+00 0.0000000000000000e+00 0.0000000000000000e+00  1.0628153156327291e+00 0.0000000000000000e+00 0.0000000000000000e+00  1.0635278782184376e+00 0.0000000000000000e+00 0.0000000000000000e+00  1.0610825716800392e+00 0.0000000000000000e+00 0.0000000000000000e+00  1.0577219682589203e+00 0.0000000000000000e+00 0.0000000000000000e+00  1.0529272240226302e+00 0.0000000000000000e+00 0.0000000000000000e+00  1.0468937232176172e+00 0.0000000000000000e+00 0.0000000000000000e+00  1.0427595724171084e+00 0.0000000000000000e+00 0.0000000000000000e+00  1.0402060892891267e+00 0.0000000000000000e+00 0.0000000000000000e+00  1.0388695442535245e+00 0.0000000000000000e+00 0.0000000000000000e+00  1.0414423240318331e+00 0.0000000000000000e+00 0.0000000000000000e+00  1.0458278584346841e+00 0.0000000000000000e+00 0.0000000000000000e+00  1.0506612064240077e+00 0.0000000000000000e+00 0.0000000000000000e+00  1.0559757671913466e+00 0.0000000000000000e+00 0.0000000000000000e+00  1.0604412351707009e+00 0.0000000000000000e+00 0.0000000000000000e+00  1.0626531295787660e+00 0.0000000000000000e+00 0.0000000000000000e+00  1.0630484925030212e+00 0.0000000000000000e+00 0.0000000000000000e+00  1.0612489065910675e+00 0.0000000000000000e+00 0.0000000000000000e+00  1.0577319596511461e+00 0.0000000000000000e+00 0.0000000000000000e+00  1.0544355892197623e+00 0.0000000000000000e+00 0.0000000000000000e+00  1.0506656255970188e+00 0.0000000000000000e+00 0.0000000000000000e+00  1.0488578626277376e+00 0.0000000000000000e+00 0.0000000000000000e+00  1.0500774260553538e+00 0.0000000000000000e+00 0.0000000000000000e+00  1.0535688648766366e+00 0.0000000000000000e+00 0.0000000000000000e+00  1.0586668241715140e+00 0.0000000000000000e+00 0.0000000000000000e+00  1.0649542269911674e+00 0.0000000000000000e+00 0.0000000000000000e+00  1.0723672119990786e+00 0.0000000000000000e+00 0.0000000000000000e+00  1.0805015512007701e+00 0.0000000000000000e+00 0.0000000000000000e+00  1.0871116270148613e+00 0.0000000000000000e+00 0.0000000000000000e+00  1.0920659045196186e+00 0.0000000000000000e+00 0.0000000000000000e+00  1.0967088221708918e+00 0.0000000000000000e+00 0.0000000000000000e+00  1.0977073184190191e+00 0.0000000000000000e+00 0.0000000000000000e+00  1.0976611026416427e+00 0.0000000000000000e+00 0.0000000000000000e+00  1.0953617703987613e+00 0.0000000000000000e+00 0.0000000000000000e+00  1.0907795072999611e+00 0.0000000000000000e+00 0.0000000000000000e+00  1.0848867639779967e+00 0.0000000000000000e+00 0.0000000000000000e+00  1.0781590433530133e+00 0.0000000000000000e+00 0.0000000000000000e+00  1.0706729108993496e+00 0.0000000000000000e+00 0.0000000000000000e+00  1.0620127894143021e+00 0.0000000000000000e+00 0.0000000000000000e+00  1.0542575510237113e+00 0.0000000000000000e+00 0.0000000000000000e+00  1.0460188971508995e+00 0.0000000000000000e+00 0.0000000000000000e+00  1.0307914109864571e+00 0.0000000000000000e+00 0.0000000000000000e+00  1.0243437955977683e+00 0.0000000000000000e+00 0.0000000000000000e+00  1.0192615662557671e+00 0.0000000000000000e+00 0.0000000000000000e+00  1.0147110974426206e+00 0.0000000000000000e+00 0.0000000000000000e+00  1.0110046792498439e+00 0.0000000000000000e+00 0.0000000000000000e+00  1.0080997305727715e+00 0.0000000000000000e+00 0.0000000000000000e+00  1.0059346524369670e+00 0.0000000000000000e+00 0.0000000000000000e+00  1.0038589153019990e+00 0.0000000000000000e+00 0.0000000000000000e+00  1.0025036963533491e+00 0.0000000000000000e+00 0.0000000000000000e+00  1.0016388824339018e+00 0.0000000000000000e+00 0.0000000000000000e+00  1.0006465205414599e+00 0.0000000000000000e+00 0.0000000000000000e+00  1.0006829062911553e+00 0.0000000000000000e+00 0.0000000000000000e+00  9.9982081441546300e-01 0.0000000000000000e+00 0.0000000000000000e+00  9.9996623508214455e-01 0.0000000000000000e+00 0.0000000000000000e+00  9.9968400293014315e-01 0.0000000000000000e+00 0.0000000000000000e+00  1.0004516034716864e+00 0.0000000000000000e+00 0.0000000000000000e+00  1.0002429681911262e+00 0.0000000000000000e+00 0.0000000000000000e+00  9.9979807011544553e-01 0.0000000000000000e+00 0.0000000000000000e+00  1.0000001305871193e+00 0.0000000000000000e+00 0.0000000000000000e+00  1.0000001305871193e+00 0.0000000000000000e+00 0.0000000000000000e+00  1.0000001305871193e+00 0.0000000000000000e+00 0.0000000000000000e+00  1.0000001305871193e+00 0.0000000000000000e+00 0.0000000000000000e+00  1.0000001305871193e+00 0.0000000000000000e+00 0.0000000000000000e+00  1.0000001305871193e+00 0.0000000000000000e+00 0.0000000000000000e+00  1.0000001305871193e+00 0.0000000000000000e+00 0.0000000000000000e+00  1.0000001305871193e+00 0.0000000000000000e+00 0.0000000000000000e+00  1.0000001305871193e+00 0.0000000000000000e+00 0.0000000000000000e+00  1.0000001305871193e+00 0.0000000000000000e+00 0.0000000000000000e+00  1.0000001305871193e+00 0.0000000000000000e+00 0.0000000000000000e+00  1.0000001305871193e+00 0.0000000000000000e+00 0.0000000000000000e+00  1.0000001305871193e+00 0.0000000000000000e+00 0.0000000000000000e+00  1.0000001305871193e+00 0.0000000000000000e+00 0.0000000000000000e+00  1.0000001305871193e+00 0.0000000000000000e+00 0.0000000000000000e+00  1.0000001305871193e+00 0.0000000000000000e+00 0.0000000000000000e+00  1.0000001305871193e+00 0.0000000000000000e+00 0.0000000000000000e+00  1.0000001305871193e+00 0.0000000000000000e+00 0.0000000000000000e+00  1.0000001305871193e+00 0.0000000000000000e+00 0.0000000000000000e+00  1.0000001305871193e+00 0.0000000000000000e+00 0.0000000000000000e+00  1.0421242301661611e+00 -9.3456960037903332e-03 0.0000000000000000e+00  1.0393910668526642e+00 -1.8944968601204117e-02 0.0000000000000000e+00  1.0375653769325988e+00 -2.9478021530397313e-02 0.0000000000000000e+00  1.0323475723430522e+00 -4.0707589275912871e-02 0.0000000000000000e+00  1.0272025173188732e+00 -5.6139443348184950e-02 0.0000000000000000e+00  1.0318944541013477e+00 -5.9385761104263989e-02 0.0000000000000000e+00  1.0362046916240950e+00 -6.2658552696886249e-02 0.0000000000000000e+00  1.0415496321856308e+00 -6.5570584711061031e-02 0.0000000000000000e+00  1.0471611721762515e+00 -6.8267926664149173e-02 0.0000000000000000e+00  1.0534016584095751e+00 -7.0475376648982777e-02 0.0000000000000000e+00  1.0602114097808439e+00 -7.2243677274573634e-02 0.0000000000000000e+00  1.0674501925407633e+00 -7.3258248124033518e-02 0.0000000000000000e+00  1.0751708597905627e+00 -7.3624313594358740e-02 0.0000000000000000e+00  1.0829703747008517e+00 -7.2994668579222377e-02 0.0000000000000000e+00  1.0910370534293912e+00 -7.1600279734375161e-02 0.0000000000000000e+00  1.0990589293983379e+00 -6.9311809568573204e-02 0.0000000000000000e+00  1.1070619546177618e+00 -6.5822838730083655e-02 0.0000000000000000e+00  1.1145582165612506e+00 -6.1265676329354153e-02 0.0000000000000000e+00  1.1215995970975983e+00 -5.5879009235883487e-02 0.0000000000000000e+00  1.1280075891195964e+00 -4.9561447252335460e-02 0.0000000000000000e+00  1.1335096948817918e+00 -4.2364763817724485e-02 0.0000000000000000e+00  1.1380913915904896e+00 -3.4484381859668380e-02 0.0000000000000000e+00  1.1415800434471737e+00 -2.6077571948947619e-02 0.0000000000000000e+00  1.1439452114530808e+00 -1.7059887172506342e-02 0.0000000000000000e+00  1.1450898157482505e+00 -8.0281864336922918e-03 0.0000000000000000e+00  1.1449842682429501e+00 1.3045565844894279e-03 0.0000000000000000e+00  1.1434113448529244e+00 1.0622438468826411e-02 0.0000000000000000e+00  1.1407204639299280e+00 1.9552170232685753e-02 0.0000000000000000e+00  1.1365764496140542e+00 2.7955954295926219e-02 0.0000000000000000e+00  1.1312516634382759e+00 3.5710773078108916e-02 0.0000000000000000e+00  1.1247490010193342e+00 4.2604742119934667e-02 0.0000000000000000e+00  1.1172080037428309e+00 4.8279353677131126e-02 0.0000000000000000e+00  1.1088159065526839e+00 5.2816202298347291e-02 0.0000000000000000e+00  1.0997369239699022e+00 5.6054437580916064e-02 0.0000000000000000e+00  1.0903044659695329e+00 5.7689280512200479e-02 0.0000000000000000e+00  1.0806564757936818e+00 5.7796