<?xml version="1.0"?>
<VTKFile type="UnstructuredGrid"  version="0.1"  >
<UnstructuredGrid>
<Piece  NumberOfPoints="10199" NumberOfCells="20110">
<Points>
<DataArray  type="Float64"  NumberOfComponents="3"  format="ascii">0 -5 0  8 -5 0  30 -5 0  40 -5 0  40 5 0  30 5 0  8 5 0  0 5 0  8 -2.5 0  15 -2.5 0  30 -2.5 0  30 2.5 0  15 2.5 0  8 2.5 0  10 0.5 0  10 -0.5 0  0 0 0  0.4210526315780956 -5 0  0.8421052631563433 -5 0  1.263157894734281 -5 0  1.684210526311999 -5 0  2.105263157889717 -5 0  2.526315789467435 -5 0  2.947368421045153 -5 0  3.368421052622872 -5 0  3.78947368420059 -5 0  4.210526315779479 -5 0  4.631578947359537 -5 0  5.052631578939595 -5 0  5.473684210519653 -5 0  5.89473684209971 -5 0  6.315789473679768 -5 0  6.736842105259826 -5 0  7.157894736839884 -5 0  7.578947368419942 -5 0  8.407407407405314 -5 0  8.814814814810628 -5 0  9.222222222215942 -5 0  9.629629629621256 -5 0  10.03703703702657 -5 0  10.44444444443188 -5 0  10.8518518518372 -5 0  11.25925925924251 -5 0  11.66666666664783 -5 0  12.07407407405314 -5 0  12.48148148145846 -5 0  12.88888888886377 -5 0  13.29629629626908 -5 0  13.7037037036744 -5 0  14.11111111107971 -5 0  14.51851851848502 -5 0  14.92592592589034 -5 0  15.33333333329565 -5 0  15.74074074070096 -5 0  16.14814814810754 -5 0  16.55555555551614 -5 0  16.96296296292474 -5 0  17.37037037033335 -5 0  17.77777777774195 -5 0  18.18518518515056 -5 0  18.59259259255916 -5 0  18.99999999996776 -5 0  19.40740740737636 -5 0  19.81481481478497 -5 0  20.22222222219357 -5 0  20.62962962960217 -5 0  21.03703703701077 -5 0  21.44444444441937 -5 0  21.85185185182797 -5 0  22.25925925923657 -5 0  22.66666666664518 -5 0  23.07407407405378 -5 0  23.48148148146238 -5 0  23.88888888887098 -5 0  24.29629629627958 -5 0  24.70370370368818 -5 0  25.11111111109678 -5 0  25.51851851850539 -5 0  25.92592592591399 -5 0  26.33333333332259 -5 0  26.74074074073119 -5 0  27.14814814813979 -5 0  27.55555555554839 -5 0  27.96296296295699 -5 0  28.3703703703656 -5 0  28.7777777777742 -5 0  29.1851851851828 -5 0  29.5925925925914 -5 0  30.41666666667852 -5 0  30.83333333335704 -5 0  31.25000000003556 -5 0  31.66666666671408 -5 0  32.08333333338936 -5 0  32.50000000005308 -5 0  32.9166666667168 -5 0  33.33333333338052 -5 0  33.75000000004424 -5 0  34.16666666670795 -5 0  34.58333333337167 -5 0  35.00000000003539 -5 0  35.41666666669911 -5 0  35.83333333336282 -5 0  36.25000000002654 -5 0  36.66666666669026 -5 0  37.08333333335398 -5 0  37.50000000001769 -5 0  37.91666666668141 -5 0  38.33333333334513 -5 0  38.75000000000885 -5 0  39.16666666667257 -5 0  39.58333333333628 -5 0  40 -4.583333333332821 0  40 -4.166666666665642 0  40 -3.74999999999855 0  40 -3.333333333333135 0  40 -2.916666666667806 0  40 -2.500000000002478 0  40 -2.083333333337148 0  40 -1.666666666671818 0  40 -1.250000000006488 0  40 -0.8333333333405228 0  40 -0.4166666666733416 0  40 -6.163070054299169e-12 0  40 0.4166666666610173 0  40 0.8333333333281976 0  40 1.249999999995378 0  40 1.666666666662558 0  40 2.083333333329739 0  40 2.499999999996919 0  40 2.916666666664099 0  40 3.33333333333128 0  40 3.74999999999846 0  40 4.166666666665641 0  40 4.583333333332821 0  39.58333333333628 5 0  39.16666666667256 5 0  38.75000000000885 5 0  38.33333333334513 5 0  37.91666666668141 5 0  37.50000000001769 5 0  37.08333333335398 5 0  36.66666666669025 5 0  36.25000000002654 5 0  35.83333333336282 5 0  35.41666666669911 5 0  35.00000000003539 5 0  34.58333333337167 5 0  34.16666666670795 5 0  33.75000000004424 5 0  33.33333333338052 5 0  32.9166666667168 5 0  32.50000000005308 5 0  32.08333333338936 5 0  31.66666666671408 5 0  31.25000000003556 5 0  30.83333333335704 5 0  30.41666666667852 5 0  29.59259259259259 5 0  29.18518518518519 5 0  28.77777777777778 5 0  28.37037037037037 5 0  27.96296296296296 5 0  27.55555555555556 5 0  27.14814814814815 5 0  26.74074074074074 5 0  26.33333333333333 5 0  25.92592592592593 5 0  25.51851851851852 5 0  25.11111111111111 5 0  24.7037037037037 5 0  24.2962962962963 5 0  23.88888888888889 5 0  23.48148148148148 5 0  23.07407407407408 5 0  22.66666666666667 5 0  22.25925925925926 5 0  21.85185185185185 5 0  21.44444444444445 5 0  21.03703703703704 5 0  20.62962962962963 5 0  20.22222222222222 5 0  19.81481481481482 5 0  19.40740740740741 5 0  19 5 0  18.5925925925926 5 0  18.18518518518519 5 0  17.77777777777778 5 0  17.37037037037037 5 0  16.96296296296296 5 0  16.55555555555556 5 0  16.14814814814815 5 0  15.74074074074074 5 0  15.33333333333333 5 0  14.92592592592593 5 0  14.51851851851852 5 0  14.11111111111111 5 0  13.70370370370371 5 0  13.2962962962963 5 0  12.88888888888889 5 0  12.48148148148148 5 0  12.07407407407408 5 0  11.66666666666667 5 0  11.25925925925926 5 0  10.85185185185185 5 0  10.44444444444445 5 0  10.03703703703704 5 0  9.629629629629633 5 0  9.222222222222221 5 0  8.814814814814817 5 0  8.407407407407408 5 0  7.5789473684193 5 0  7.157894736838599 5 0  6.73684210526082 5 0  6.315789473684795 5 0  5.894736842108769 5 0  5.473684210532742 5 0  5.052631578956715 5 0  4.631578947380689 5 0  4.210526315804662 5 0  3.789473684226299 5 0  3.368421052645599 5 0  2.947368421064898 5 0  2.526315789484198 5 0  2.105263157903499 5 0  1.6842105263228 5 0  1.2631578947421 5 0  0.8421052631613994 5 0  0.4210526315806993 5 0  0 4.545454545454545 0  0 4.09090909090909 0  0 3.636363636363634 0  0 3.18181818181818 0  0 2.727272727272726 0  0 2.272727272727271 0  0 1.818181818181817 0  0 1.363636363636363 0  0 0.9090909090909092 0  0 0.454545454545455 0  0 -0.4545454545450807 0  0 -0.9090909090895867 0  0 -1.363636363633713 0  0 -1.818181818177841 0  0 -2.272727272723127 0  0 -2.727272727269273 0  0 -3.181818181815419 0  0 -3.636363636361564 0  0 -4.090909090907709 0  0 -4.545454545453855 0  8 -4.499999999999999 0  8 -3.999999999999999 0  8 -3.499999999999999 0  8 -3 0  8.137254901963859 -2.5 0  8.274509803926303 -2.5 0  8.411764705886863 -2.5 0  8.549019607849138 -2.5 0  8.686274509809513 -2.5 0  8.82352941176989 -2.5 0  8.960784313730265 -2.5 0  9.098039215690642 -2.5 0  9.235294117651017 -2.5 0  9.372549019611395 -2.5 0  9.50980392157177 -2.5 0  9.647058823532147 -2.5 0  9.784313725492522 -2.5 0  9.921568627452897 -2.5 0  10.05882352941327 -2.5 0  10.19607843137365 -2.5 0  10.33333333333402 -2.5 0  10.4705882352944 -2.5 0  10.60784313725478 -2.5 0  10.74509803921515 -2.5 0  10.88235294117553 -2.5 0  11.0196078431359 -2.5 0  11.15686274509628 -2.5 0  11.29411764705665 -2.5 0  11.43137254901703 -2.5 0  11.56862745097915 -2.5 0  11.70588235294301 -2.5 0  11.84313725490686 -2.5 0  11.98039215687072 -2.5 0  12.11764705883209 -2.5 0  12.25490196079247 -2.5 0  12.39215686275285 -2.5 0  12.52941176471322 -2.5 0  12.6666666666736 -2.5 0  12.80392156863397 -2.5 0  12.94117647059435 -2.5 0  13.07843137255473 -2.5 0  13.2156862745151 -2.5 0  13.35294117647548 -2.5 0  13.49019607843586 -2.5 0  13.62745098039623 -2.5 0  13.76470588235661 -2.5 0  13.90196078431699 -2.5 0  14.03921568627736 -2.5 0  14.17647058823774 -2.5 0  14.31372549019812 -2.5 0  14.45098039215849 -2.5 0  14.58823529411887 -2.5 0  14.72549019607925 -2.5 0  14.86274509803962 -2.5 0  15.20270270270254 -2.5 0  15.40540540540509 -2.5 0  15.60810810810763 -2.5 0  15.81081081081017 -2.5 0  16.01351351351227 -2.5 0  16.21621621621265 -2.5 0  16.41891891891279 -2.5 0  16.62162162161294 -2.5 0  16.82432432431308 -2.5 0  17.02702702701322 -2.5 0  17.22972972971337 -2.5 0  17.43243243241351 -2.5 0  17.63513513511365 -2.5 0  17.83783783781379 -2.5 0  18.04054054051394 -2.5 0  18.24324324321408 -2.5 0  18.44594594591422 -2.5 0  18.64864864861436 -2.5 0  18.85135135131451 -2.5 0  19.05405405401465 -2.5 0  19.25675675671479 -2.5 0  19.45945945941494 -2.5 0  19.66216216211508 -2.5 0  19.86486486481522 -2.5 0  20.06756756751536 -2.5 0  20.27027027021551 -2.5 0  20.47297297291565 -2.5 0  20.6756756756158 -2.5 0  20.87837837831594 -2.5 0  21.08108108101608 -2.5 0  21.28378378371622 -2.5 0  21.48648648641637 -2.5 0  21.68918918911651 -2.5 0  21.89189189181666 -2.5 0  22.0945945945168 -2.5 0  22.29729729721694 -2.5 0  22.49999999991778 -2.5 0  22.70270270262203 -2.5 0  22.90540540532697 -2.5 0  23.10810810803191 -2.5 0  23.31081081073686 -2.5 0  23.5135135134418 -2.5 0  23.71621621614674 -2.5 0  23.91891891885169 -2.5 0  24.12162162155663 -2.5 0  24.32432432426158 -2.5 0  24.52702702696652 -2.5 0  24.72972972967146 -2.5 0  24.93243243237641 -2.5 0  25.13513513508135 -2.5 0  25.3378378377863 -2.5 0  25.54054054049124 -2.5 0  25.74324324319618 -2.5 0  25.94594594590112 -2.5 0  26.14864864860607 -2.5 0  26.35135135131101 -2.5 0  26.55405405401596 -2.5 0  26.7567567567209 -2.5 0  26.95945945942584 -2.5 0  27.16216216213079 -2.5 0  27.36486486483573 -2.5 0  27.56756756754068 -2.5 0  27.77027027024562 -2.5 0  27.97297297295056 -2.5 0  28.1756756756555 -2.5 0  28.37837837836045 -2.5 0  28.5810810810654 -2.5 0  28.78378378377034 -2.5 0  28.98648648647528 -2.5 0  29.18918918918023 -2.5 0  29.39189189188517 -2.5 0  29.59459459459011 -2.5 0  29.79729729729506 -2.5 0  30 -3.000000000000001 0  30 -3.500000000000001 0  30 -4.000000000000001 0  30 -4.5 0  8 4.499999999999999 0  8 3.999999999999999 0  8 3.499999999999999 0  8 3 0  8.137254901963859 2.5 0  8.274509803926303 2.5 0  8.411764705886863 2.5 0  8.549019607849138 2.5 0  8.686274509809513 2.5 0  8.82352941176989 2.5 0  8.960784313730265 2.5 0  9.098039215690642 2.5 0  9.235294117651017 2.5 0  9.372549019611395 2.5 0  9.50980392157177 2.5 0  9.647058823532147 2.5 0  9.784313725492522 2.5 0  9.921568627452897 2.5 0  10.05882352941327 2.5 0  10.19607843137365 2.5 0  10.33333333333402 2.5 0  10.4705882352944 2.5 0  10.60784313725478 2.5 0  10.74509803921515 2.5 0  10.88235294117553 2.5 0  11.0196078431359 2.5 0  11.15686274509628 2.5 0  11.29411764705665 2.5 0  11.43137254901703 2.5 0  11.56862745097915 2.5 0  11.70588235294301 2.5 0  11.84313725490686 2.5 0  11.98039215687072 2.5 0  12.11764705883209 2.5 0  12.25490196079247 2.5 0  1
[...]
<PointData  Vectors="f_17"> 
<DataArray  type="Float64"  Name="f_17"  NumberOfComponents="3" format="ascii">1.0000001316501639e+00 0.0000000000000000e+00 0.0000000000000000e+00  1.0416226481778115e+00 0.0000000000000000e+00 0.0000000000000000e+00  1.0633370104364632e+00 0.0000000000000000e+00 0.0000000000000000e+00  1.0930100546414137e+00 0.0000000000000000e+00 0.0000000000000000e+00  1.0747037308058536e+00 0.0000000000000000e+00 0.0000000000000000e+00  1.0508107169707208e+00 0.0000000000000000e+00 0.0000000000000000e+00  1.0393051331833543e+00 0.0000000000000000e+00 0.0000000000000000e+00  1.0000001316501639e+00 0.0000000000000000e+00 0.0000000000000000e+00  1.0251634846946194e+00 -5.0788859576867622e-02 0.0000000000000000e+00  1.1192576205733085e+00 6.5417114405424984e-02 0.0000000000000000e+00  1.1517005379495833e+00 -4.4927151248070320e-02 0.0000000000000000e+00  9.9456861382445583e-01 -3.9819066044257959e-02 0.0000000000000000e+00  9.9014884700597006e-01 9.7975032052053292e-03 0.0000000000000000e+00  1.0176603404771631e+00 5.0897319224722459e-02 0.0000000000000000e+00  0.0000000000000000e+00 0.0000000000000000e+00 0.0000000000000000e+00  0.0000000000000000e+00 0.0000000000000000e+00 0.0000000000000000e+00  1.0000001316501639e+00 0.0000000000000000e+00 0.0000000000000000e+00  9.9931271720602632e-01 0.0000000000000000e+00 0.0000000000000000e+00  9.9882733787591926e-01 0.0000000000000000e+00 0.0000000000000000e+00  1.0009620909189008e+00 0.0000000000000000e+00 0.0000000000000000e+00  1.0008986445299846e+00 0.0000000000000000e+00 0.0000000000000000e+00  1.0020014823221743e+00 0.0000000000000000e+00 0.0000000000000000e+00  1.0024451777965988e+00 0.0000000000000000e+00 0.0000000000000000e+00  1.0028393255389407e+00 0.0000000000000000e+00 0.0000000000000000e+00  1.0037222836012660e+00 0.0000000000000000e+00 0.0000000000000000e+00  1.0049864350307365e+00 0.0000000000000000e+00 0.0000000000000000e+00  1.0061013661618250e+00 0.0000000000000000e+00 0.0000000000000000e+00  1.0075651391854414e+00 0.0000000000000000e+00 0.0000000000000000e+00  1.0097450901041107e+00 0.0000000000000000e+00 0.0000000000000000e+00  1.0120555175069432e+00 0.0000000000000000e+00 0.0000000000000000e+00  1.0159547338238473e+00 0.0000000000000000e+00 0.0000000000000000e+00  1.0176310266817958e+00 0.0000000000000000e+00 0.0000000000000000e+00  1.0221183428424339e+00 0.0000000000000000e+00 0.0000000000000000e+00  1.0287459653098439e+00 0.0000000000000000e+00 0.0000000000000000e+00  1.0339944353836212e+00 0.0000000000000000e+00 0.0000000000000000e+00  1.0491541023063771e+00 0.0000000000000000e+00 0.0000000000000000e+00  1.0569399807281217e+00 0.0000000000000000e+00 0.0000000000000000e+00  1.0639168703421158e+00 0.0000000000000000e+00 0.0000000000000000e+00  1.0710654219595448e+00 0.0000000000000000e+00 0.0000000000000000e+00  1.0765287611124472e+00 0.0000000000000000e+00 0.0000000000000000e+00  1.0810930799560188e+00 0.0000000000000000e+00 0.0000000000000000e+00  1.0852062270724776e+00 0.0000000000000000e+00 0.0000000000000000e+00  1.0869414690840840e+00 0.0000000000000000e+00 0.0000000000000000e+00  1.0881964141095073e+00 0.0000000000000000e+00 0.0000000000000000e+00  1.0884677452879596e+00 0.0000000000000000e+00 0.0000000000000000e+00  1.0886453215623053e+00 0.0000000000000000e+00 0.0000000000000000e+00  1.0874514295367192e+00 0.0000000000000000e+00 0.0000000000000000e+00  1.0867960329661548e+00 0.0000000000000000e+00 0.0000000000000000e+00  1.0852561822835178e+00 0.0000000000000000e+00 0.0000000000000000e+00  1.0824458727934516e+00 0.0000000000000000e+00 0.0000000000000000e+00  1.0786837165949352e+00 0.0000000000000000e+00 0.0000000000000000e+00  1.0734224801846448e+00 0.0000000000000000e+00 0.0000000000000000e+00  1.0670879497567258e+00 0.0000000000000000e+00 0.0000000000000000e+00  1.0597591380396203e+00 0.0000000000000000e+00 0.0000000000000000e+00  1.0523347074921954e+00 0.0000000000000000e+00 0.0000000000000000e+00  1.0469109912863563e+00 0.0000000000000000e+00 0.0000000000000000e+00  1.0437029019933786e+00 0.0000000000000000e+00 0.0000000000000000e+00  1.0415286345514696e+00 0.0000000000000000e+00 0.0000000000000000e+00  1.0427103760569769e+00 0.0000000000000000e+00 0.0000000000000000e+00  1.0459115267071031e+00 0.0000000000000000e+00 0.0000000000000000e+00  1.0504457119849551e+00 0.0000000000000000e+00 0.0000000000000000e+00  1.0558391840941925e+00 0.0000000000000000e+00 0.0000000000000000e+00  1.0599666594764081e+00 0.0000000000000000e+00 0.0000000000000000e+00  1.0623446049891314e+00 0.0000000000000000e+00 0.0000000000000000e+00  1.0627595265292780e+00 0.0000000000000000e+00 0.0000000000000000e+00  1.0599674562257722e+00 0.0000000000000000e+00 0.0000000000000000e+00  1.0553573871211177e+00 0.0000000000000000e+00 0.0000000000000000e+00  1.0513512342010500e+00 0.0000000000000000e+00 0.0000000000000000e+00  1.0466229840517951e+00 0.0000000000000000e+00 0.0000000000000000e+00  1.0429945729098009e+00 0.0000000000000000e+00 0.0000000000000000e+00  1.0423867888723533e+00 0.0000000000000000e+00 0.0000000000000000e+00  1.0431161499878878e+00 0.0000000000000000e+00 0.0000000000000000e+00  1.0457273251840089e+00 0.0000000000000000e+00 0.0000000000000000e+00  1.0513120414432082e+00 0.0000000000000000e+00 0.0000000000000000e+00  1.0563273220566518e+00 0.0000000000000000e+00 0.0000000000000000e+00  1.0605345424717303e+00 0.0000000000000000e+00 0.0000000000000000e+00  1.0639266180503657e+00 0.0000000000000000e+00 0.0000000000000000e+00  1.0644209603132313e+00 0.0000000000000000e+00 0.0000000000000000e+00  1.0626711141793905e+00 0.0000000000000000e+00 0.0000000000000000e+00  1.0598545741945256e+00 0.0000000000000000e+00 0.0000000000000000e+00  1.0553869356097587e+00 0.0000000000000000e+00 0.0000000000000000e+00  1.0509504614268130e+00 0.0000000000000000e+00 0.0000000000000000e+00  1.0501553053007227e+00 0.0000000000000000e+00 0.0000000000000000e+00  1.0491441413204303e+00 0.0000000000000000e+00 0.0000000000000000e+00  1.0484580860248462e+00 0.0000000000000000e+00 0.0000000000000000e+00  1.0506549950924575e+00 0.0000000000000000e+00 0.0000000000000000e+00  1.0554269192691281e+00 0.0000000000000000e+00 0.0000000000000000e+00  1.0596375114583201e+00 0.0000000000000000e+00 0.0000000000000000e+00  1.0652976053960961e+00 0.0000000000000000e+00 0.0000000000000000e+00  1.0644240067634290e+00 0.0000000000000000e+00 0.0000000000000000e+00  1.0615866054195375e+00 0.0000000000000000e+00 0.0000000000000000e+00  1.0584879540041361e+00 0.0000000000000000e+00 0.0000000000000000e+00  1.0549083271735216e+00 0.0000000000000000e+00 0.0000000000000000e+00  1.0517475843103834e+00 0.0000000000000000e+00 0.0000000000000000e+00  1.0501508450686279e+00 0.0000000000000000e+00 0.0000000000000000e+00  1.0508867721811983e+00 0.0000000000000000e+00 0.0000000000000000e+00  1.0535221492065510e+00 0.0000000000000000e+00 0.0000000000000000e+00  1.0570398730722634e+00 0.0000000000000000e+00 0.0000000000000000e+00  1.0616041625695343e+00 0.0000000000000000e+00 0.0000000000000000e+00  1.0654097940941862e+00 0.0000000000000000e+00 0.0000000000000000e+00  1.0676627421571285e+00 0.0000000000000000e+00 0.0000000000000000e+00  1.0687121539711659e+00 0.0000000000000000e+00 0.0000000000000000e+00  1.0679521142739594e+00 0.0000000000000000e+00 0.0000000000000000e+00  1.0664874317814363e+00 0.0000000000000000e+00 0.0000000000000000e+00  1.0637922899701806e+00 0.0000000000000000e+00 0.0000000000000000e+00  1.0622576372737282e+00 0.0000000000000000e+00 0.0000000000000000e+00  1.0620569410108631e+00 0.0000000000000000e+00 0.0000000000000000e+00  1.0647055779635002e+00 0.0000000000000000e+00 0.0000000000000000e+00  1.0692848487499971e+00 0.0000000000000000e+00 0.0000000000000000e+00  1.0767559104771525e+00 0.0000000000000000e+00 0.0000000000000000e+00  1.0845007696954574e+00 0.0000000000000000e+00 0.0000000000000000e+00  1.0944380075296931e+00 -7.9903109772099384e-03 0.0000000000000000e+00  1.0980731406252606e+00 -1.7673335084483068e-02 0.0000000000000000e+00  1.1047613588003451e+00 -3.0963348222137713e-02 0.0000000000000000e+00  1.1147562639932687e+00 -5.1041608344392662e-02 0.0000000000000000e+00  1.1325162608643444e+00 -8.3823199231832457e-02 0.0000000000000000e+00  1.1480693008970972e+00 -1.2883727626062269e-01 0.0000000000000000e+00  1.1368655374247063e+00 -1.8374707639780899e-01 0.0000000000000000e+00  1.0743304730182250e+00 -2.3029518543689886e-01 0.0000000000000000e+00  9.6090120984535354e-01 -2.5035160680742452e-01 0.0000000000000000e+00  8.3750495369391131e-01 -2.3693276563167429e-01 0.0000000000000000e+00  7.4959544557547630e-01 -2.1128493329262613e-01 0.0000000000000000e+00  7.2222092993873133e-01 -1.8824988110571353e-01 0.0000000000000000e+00  7.4615918218840682e-01 -1.7269132205800783e-01 0.0000000000000000e+00  8.0570064525785257e-01 -1.5370603030670540e-01 0.0000000000000000e+00  8.7889504736834645e-01 -1.3157279763714280e-01 0.0000000000000000e+00  9.4749338933393423e-01 -1.0010432467634321e-01 0.0000000000000000e+00  9.9808973806656154e-01 -7.0393228950723502e-02 0.0000000000000000e+00  1.0318780306911137e+00 -4.4111026219174183e-02 0.0000000000000000e+00  1.0520583814365763e+00 -2.5082417553137080e-02 0.0000000000000000e+00  1.0645315882876722e+00 -1.3421231670580756e-02 0.0000000000000000e+00  1.0707406066533665e+00 -6.6823294753038569e-03 0.0000000000000000e+00  1.0741826076974528e+00 -3.0831944072375380e-03 0.0000000000000000e+00  1.0749672201995866e+00 -1.1765510654318581e-03 0.0000000000000000e+00  1.0759190719576885e+00 0.0000000000000000e+00 0.0000000000000000e+00  1.0775751218961303e+00 0.0000000000000000e+00 0.0000000000000000e+00  1.0786735585712710e+00 0.0000000000000000e+00 0.0000000000000000e+00  1.0786956684110767e+00 0.0000000000000000e+00 0.0000000000000000e+00  1.0763062610058265e+00 0.0000000000000000e+00 0.0000000000000000e+00  1.0726704808425185e+00 0.0000000000000000e+00 0.0000000000000000e+00  1.0680380326562016e+00 0.0000000000000000e+00 0.0000000000000000e+00  1.0631836418377945e+00 0.0000000000000000e+00 0.0000000000000000e+00  1.0584547018896888e+00 0.0000000000000000e+00 0.0000000000000000e+00  1.0555505811743779e+00 0.0000000000000000e+00 0.0000000000000000e+00  1.0547529651537531e+00 0.0000000000000000e+00 0.0000000000000000e+00  1.0557566752935470e+00 0.0000000000000000e+00 0.0000000000000000e+00  1.0584276222695443e+00 0.0000000000000000e+00 0.0000000000000000e+00  1.0622977153501092e+00 0.0000000000000000e+00 0.0000000000000000e+00  1.0650441499330781e+00 0.0000000000000000e+00 0.0000000000000000e+00  1.0673547216933363e+00 0.0000000000000000e+00 0.0000000000000000e+00  1.0665445639531790e+00 0.0000000000000000e+00 0.0000000000000000e+00  1.0643738830752383e+00 0.0000000000000000e+00 0.0000000000000000e+00  1.0605380533030468e+00 0.0000000000000000e+00 0.0000000000000000e+00  1.0565992526653820e+00 0.0000000000000000e+00 0.0000000000000000e+00  1.0528818884742517e+00 0.0000000000000000e+00 0.0000000000000000e+00  1.0499162387769754e+00 0.0000000000000000e+00 0.0000000000000000e+00  1.0494530481780182e+00 0.0000000000000000e+00 0.0000000000000000e+00  1.0530004550442227e+00 0.0000000000000000e+00 0.0000000000000000e+00  1.0570116942088634e+00 0.0000000000000000e+00 0.0000000000000000e+00  1.0598027619902368e+00 0.0000000000000000e+00 0.0000000000000000e+00  1.0631182849162684e+00 0.0000000000000000e+00 0.0000000000000000e+00  1.0654905152130747e+00 0.0000000000000000e+00 0.0000000000000000e+00  1.0644740064532938e+00 0.0000000000000000e+00 0.0000000000000000e+00  1.0596592545394046e+00 0.0000000000000000e+00 0.0000000000000000e+00  1.0560071710478660e+00 0.0000000000000000e+00 0.0000000000000000e+00  1.0519333853344048e+00 0.0000000000000000e+00 0.0000000000000000e+00  1.0477978160330683e+00 0.0000000000000000e+00 0.0000000000000000e+00  1.0459162465788361e+00 0.0000000000000000e+00 0.0000000000000000e+00  1.0460642863738854e+00 0.0000000000000000e+00 0.0000000000000000e+00  1.0475109387462052e+00 0.0000000000000000e+00 0.0000000000000000e+00  1.0512555123746716e+00 0.0000000000000000e+00 0.0000000000000000e+00  1.0556432106766063e+00 0.0000000000000000e+00 0.0000000000000000e+00  1.0588273600018283e+00 0.0000000000000000e+00 0.0000000000000000e+00  1.0618472190959340e+00 0.0000000000000000e+00 0.0000000000000000e+00  1.0626054513345311e+00 0.0000000000000000e+00 0.0000000000000000e+00  1.0600741552350692e+00 0.0000000000000000e+00 0.0000000000000000e+00  1.0563559545988397e+00 0.0000000000000000e+00 0.0000000000000000e+00  1.0511814213842763e+00 0.0000000000000000e+00 0.0000000000000000e+00  1.0447378334168649e+00 0.0000000000000000e+00 0.0000000000000000e+00  1.0408728648542536e+00 0.0000000000000000e+00 0.0000000000000000e+00  1.0387374821184374e+00 0.0000000000000000e+00 0.0000000000000000e+00  1.0382495525982178e+00 0.0000000000000000e+00 0.0000000000000000e+00  1.0406403120643064e+00 0.0000000000000000e+00 0.0000000000000000e+00  1.0450678862684679e+00 0.0000000000000000e+00 0.0000000000000000e+00  1.0503446770760305e+00 0.0000000000000000e+00 0.0000000000000000e+00  1.0562180138674708e+00 0.0000000000000000e+00 0.0000000000000000e+00  1.0612894379197604e+00 0.0000000000000000e+00 0.0000000000000000e+00  1.0644469270294157e+00 0.0000000000000000e+00 0.0000000000000000e+00  1.0662925423674268e+00 0.0000000000000000e+00 0.0000000000000000e+00  1.0650797145962461e+00 0.0000000000000000e+00 0.0000000000000000e+00  1.0628657923732376e+00 0.0000000000000000e+00 0.0000000000000000e+00  1.0611569909058920e+00 0.0000000000000000e+00 0.0000000000000000e+00  1.0598992136686607e+00 0.0000000000000000e+00 0.0000000000000000e+00  1.0596314041249224e+00 0.0000000000000000e+00 0.0000000000000000e+00  1.0609667853045965e+00 0.0000000000000000e+00 0.0000000000000000e+00  1.0646768357018099e+00 0.0000000000000000e+00 0.0000000000000000e+00  1.0708084301591094e+00 0.0000000000000000e+00 0.0000000000000000e+00  1.0771867273530844e+00 0.0000000000000000e+00 0.0000000000000000e+00  1.0834063912121099e+00 0.0000000000000000e+00 0.0000000000000000e+00  1.0903334291993025e+00 0.0000000000000000e+00 0.0000000000000000e+00  1.0940032848755390e+00 0.0000000000000000e+00 0.0000000000000000e+00  1.0964947422977231e+00 0.0000000000000000e+00 0.0000000000000000e+00  1.0962257698743745e+00 0.0000000000000000e+00 0.0000000000000000e+00  1.0930419355484475e+00 0.0000000000000000e+00 0.0000000000000000e+00  1.0878429938110505e+00 0.0000000000000000e+00 0.0000000000000000e+00  1.0812561561231222e+00 0.0000000000000000e+00 0.0000000000000000e+00  1.0735472998236106e+00 0.0000000000000000e+00 0.0000000000000000e+00  1.0644131984984464e+00 0.0000000000000000e+00 0.0000000000000000e+00  1.0561739443147065e+00 0.0000000000000000e+00 0.0000000000000000e+00  1.0474674820774466e+00 0.0000000000000000e+00 0.0000000000000000e+00  1.0315382806839497e+00 0.0000000000000000e+00 0.0000000000000000e+00  1.0249147386935173e+00 0.0000000000000000e+00 0.0000000000000000e+00  1.0197288941465645e+00 0.0000000000000000e+00 0.0000000000000000e+00  1.0151268252244952e+00 0.0000000000000000e+00 0.0000000000000000e+00  1.0113666815651916e+00 0.0000000000000000e+00 0.0000000000000000e+00  1.0084156650770073e+00 0.0000000000000000e+00 0.0000000000000000e+00  1.0061819490899186e+00 0.0000000000000000e+00 0.0000000000000000e+00  1.0040069998513297e+00 0.0000000000000000e+00 0.0000000000000000e+00  1.0025478319992616e+00 0.0000000000000000e+00 0.0000000000000000e+00  1.0015494287347537e+00 0.0000000000000000e+00 0.0000000000000000e+00  1.0004505408949833e+00 0.0000000000000000e+00 0.0000000000000000e+00  1.0004172525402573e+00 0.0000000000000000e+00 0.0000000000000000e+00  9.9952205620107581e-01 0.0000000000000000e+00 0.0000000000000000e+00  9.9966841834088538e-01 0.0000000000000000e+00 0.0000000000000000e+00  9.9945272709068445e-01 0.0000000000000000e+00 0.0000000000000000e+00  1.0002872543068007e+00 0.0000000000000000e+00 0.0000000000000000e+00  1.0001639327449088e+00 0.0000000000000000e+00 0.0000000000000000e+00  9.9978566615870612e-01 0.0000000000000000e+00 0.0000000000000000e+00  1.0000001316501639e+00 0.0000000000000000e+00 0.0000000000000000e+00  1.0000001316501639e+00 0.0000000000000000e+00 0.0000000000000000e+00  1.0000001316501639e+00 0.0000000000000000e+00 0.0000000000000000e+00  1.0000001316501639e+00 0.0000000000000000e+00 0.0000000000000000e+00  1.0000001316501639e+00 0.0000000000000000e+00 0.0000000000000000e+00  1.0000001316501639e+00 0.0000000000000000e+00 0.0000000000000000e+00  1.0000001316501639e+00 0.0000000000000000e+00 0.0000000000000000e+00  1.0000001316501639e+00 0.0000000000000000e+00 0.0000000000000000e+00  1.0000001316501639e+00 0.0000000000000000e+00 0.0000000000000000e+00  1.0000001316501639e+00 0.0000000000000000e+00 0.0000000000000000e+00  1.0000001316501639e+00 0.0000000000000000e+00 0.0000000000000000e+00  1.0000001316501639e+00 0.0000000000000000e+00 0.0000000000000000e+00  1.0000001316501639e+00 0.0000000000000000e+00 0.0000000000000000e+00  1.0000001316501639e+00 0.0000000000000000e+00 0.0000000000000000e+00  1.0000001316501639e+00 0.0000000000000000e+00 0.0000000000000000e+00  1.0000001316501639e+00 0.0000000000000000e+00 0.0000000000000000e+00  1.0000001316501639e+00 0.0000000000000000e+00 0.0000000000000000e+00  1.0000001316501639e+00 0.0000000000000000e+00 0.0000000000000000e+00  1.0000001316501639e+00 0.0000000000000000e+00 0.0000000000000000e+00  1.0000001316501639e+00 0.0000000000000000e+00 0.0000000000000000e+00  1.0411346963315167e+00 -8.9054507562540113e-03 0.0000000000000000e+00  1.0385787980571117e+00 -1.8092419913973559e-02 0.0000000000000000e+00  1.0370651178275379e+00 -2.8342913130711252e-02 0.0000000000000000e+00  1.0323997254924397e+00 -3.9207620327570594e-02 0.0000000000000000e+00  1.0280663679658881e+00 -5.4067134432214239e-02 0.0000000000000000e+00  1.0327911060864687e+00 -5.6918124083870307e-02 0.0000000000000000e+00  1.0370406161625811e+00 -5.9772064898604552e-02 0.0000000000000000e+00  1.0423210524625068e+00 -6.2203345755358977e-02 0.0000000000000000e+00  1.0477916206061932e+00 -6.4392872992415973e-02 0.0000000000000000e+00  1.0538382908035546e+00 -6.6030959197960176e-02 0.0000000000000000e+00  1.0603864080301957e+00 -6.7212081618077138e-02 0.0000000000000000e+00  1.0672435489581389e+00 -6.7603038295632939e-02 0.0000000000000000e+00  1.0745059943286284e+00 -6.7313168156472411e-02 0.0000000000000000e+00  1.0816743906193969e+00 -6.6007128620377914e-02 0.0000000000000000e+00  1.0889801353890933e+00 -6.3967627168385235e-02 0.0000000000000000e+00  1.0960274754016515e+00 -6.1102919955763224e-02 0.0000000000000000e+00  1.1029073744925093e+00 -5.7068292677437078e-02 0.0000000000000000e+00  1.1090577971857201e+00 -5.2049946782747998e-02 0.0000000000000000e+00  1.1145146076471486e+00 -4.6407671577411047e-02 0.0000000000000000e+00  1.1191151710082357e+00 -4.0041946220464260e-02 0.0000000000000000e+00  1.1226163092122361e+00 -3.3118465592111158e-02 0.0000000000000000e+00  1.1249572709084661e+00 -2.5839270494215034e-02 0.0000000000000000e+00  1.1261439820718788e+00 -1.8518336821850709e-02 0.0000000000000000e+00  1.1260930260398516e+00 -1.1053567138982969e-02 0.0000000000000000e+00  1.1248519532586148e+00 -4.2231349168348215e-03 0.0000000000000000e+00  1.1224694516434834e+00 2.4300639624855636e-03 0.0000000000000000e+00  1.1189337283620358e+00 8.3601537911805746e-03 0.0000000000000000e+00  1.1146764748624933e+00 1.3209299138919085e-02 0.0000000000000000e+00  1.1096031521220495e+00 1.6933051333497397e-02 0.0000000000000000e+00  1.1040539860237686e+00 1.9454290559746231e-02 0.0000000000000000e+00  1.0982514639447833e+00 2.0764790077681148e-02 0.0000000000000000e+00  1.0925105644466497e+00 2.0606441121147599e-02 0.0000000000000000e+00  1.0869737531602417e+00 1.9200903950930222e-02 0.0000000000000000e+00  1.0820686679021232e+00 1.6644522631684117e-02 0.0000000000000000e+00  1.0780615931194779e+00 1.2880675880522715e-02 0.0000000000000000e+00  1.0750757962236277e+00 8.294758