<?xml version="1.0"?>
<VTKFile type="UnstructuredGrid"  version="0.1"  >
<UnstructuredGrid>
<Piece  NumberOfPoints="10199" NumberOfCells="20110">
<Points>
<DataArray  type="Float64"  NumberOfComponents="3"  format="ascii">0 -5 0  8 -5 0  30 -5 0  40 -5 0  40 5 0  30 5 0  8 5 0  0 5 0  8 -2.5 0  15 -2.5 0  30 -2.5 0  30 2.5 0  15 2.5 0  8 2.5 0  10 0.5 0  10 -0.5 0  0 0 0  0.4210526315780956 -5 0  0.8421052631563433 -5 0  1.263157894734281 -5 0  1.684210526311999 -5 0  2.105263157889717 -5 0  2.526315789467435 -5 0  2.947368421045153 -5 0  3.368421052622872 -5 0  3.78947368420059 -5 0  4.210526315779479 -5 0  4.631578947359537 -5 0  5.052631578939595 -5 0  5.473684210519653 -5 0  5.89473684209971 -5 0  6.315789473679768 -5 0  6.736842105259826 -5 0  7.157894736839884 -5 0  7.578947368419942 -5 0  8.407407407405314 -5 0  8.814814814810628 -5 0  9.222222222215942 -5 0  9.629629629621256 -5 0  10.03703703702657 -5 0  10.44444444443188 -5 0  10.8518518518372 -5 0  11.25925925924251 -5 0  11.66666666664783 -5 0  12.07407407405314 -5 0  12.48148148145846 -5 0  12.88888888886377 -5 0  13.29629629626908 -5 0  13.7037037036744 -5 0  14.11111111107971 -5 0  14.51851851848502 -5 0  14.92592592589034 -5 0  15.33333333329565 -5 0  15.74074074070096 -5 0  16.14814814810754 -5 0  16.55555555551614 -5 0  16.96296296292474 -5 0  17.37037037033335 -5 0  17.77777777774195 -5 0  18.18518518515056 -5 0  18.59259259255916 -5 0  18.99999999996776 -5 0  19.40740740737636 -5 0  19.81481481478497 -5 0  20.22222222219357 -5 0  20.62962962960217 -5 0  21.03703703701077 -5 0  21.44444444441937 -5 0  21.85185185182797 -5 0  22.25925925923657 -5 0  22.66666666664518 -5 0  23.07407407405378 -5 0  23.48148148146238 -5 0  23.88888888887098 -5 0  24.29629629627958 -5 0  24.70370370368818 -5 0  25.11111111109678 -5 0  25.51851851850539 -5 0  25.92592592591399 -5 0  26.33333333332259 -5 0  26.74074074073119 -5 0  27.14814814813979 -5 0  27.55555555554839 -5 0  27.96296296295699 -5 0  28.3703703703656 -5 0  28.7777777777742 -5 0  29.1851851851828 -5 0  29.5925925925914 -5 0  30.41666666667852 -5 0  30.83333333335704 -5 0  31.25000000003556 -5 0  31.66666666671408 -5 0  32.08333333338936 -5 0  32.50000000005308 -5 0  32.9166666667168 -5 0  33.33333333338052 -5 0  33.75000000004424 -5 0  34.16666666670795 -5 0  34.58333333337167 -5 0  35.00000000003539 -5 0  35.41666666669911 -5 0  35.83333333336282 -5 0  36.25000000002654 -5 0  36.66666666669026 -5 0  37.08333333335398 -5 0  37.50000000001769 -5 0  37.91666666668141 -5 0  38.33333333334513 -5 0  38.75000000000885 -5 0  39.16666666667257 -5 0  39.58333333333628 -5 0  40 -4.583333333332821 0  40 -4.166666666665642 0  40 -3.74999999999855 0  40 -3.333333333333135 0  40 -2.916666666667806 0  40 -2.500000000002478 0  40 -2.083333333337148 0  40 -1.666666666671818 0  40 -1.250000000006488 0  40 -0.8333333333405228 0  40 -0.4166666666733416 0  40 -6.163070054299169e-12 0  40 0.4166666666610173 0  40 0.8333333333281976 0  40 1.249999999995378 0  40 1.666666666662558 0  40 2.083333333329739 0  40 2.499999999996919 0  40 2.916666666664099 0  40 3.33333333333128 0  40 3.74999999999846 0  40 4.166666666665641 0  40 4.583333333332821 0  39.58333333333628 5 0  39.16666666667256 5 0  38.75000000000885 5 0  38.33333333334513 5 0  37.91666666668141 5 0  37.50000000001769 5 0  37.08333333335398 5 0  36.66666666669025 5 0  36.25000000002654 5 0  35.83333333336282 5 0  35.41666666669911 5 0  35.00000000003539 5 0  34.58333333337167 5 0  34.16666666670795 5 0  33.75000000004424 5 0  33.33333333338052 5 0  32.9166666667168 5 0  32.50000000005308 5 0  32.08333333338936 5 0  31.66666666671408 5 0  31.25000000003556 5 0  30.83333333335704 5 0  30.41666666667852 5 0  29.59259259259259 5 0  29.18518518518519 5 0  28.77777777777778 5 0  28.37037037037037 5 0  27.96296296296296 5 0  27.55555555555556 5 0  27.14814814814815 5 0  26.74074074074074 5 0  26.33333333333333 5 0  25.92592592592593 5 0  25.51851851851852 5 0  25.11111111111111 5 0  24.7037037037037 5 0  24.2962962962963 5 0  23.88888888888889 5 0  23.48148148148148 5 0  23.07407407407408 5 0  22.66666666666667 5 0  22.25925925925926 5 0  21.85185185185185 5 0  21.44444444444445 5 0  21.03703703703704 5 0  20.62962962962963 5 0  20.22222222222222 5 0  19.81481481481482 5 0  19.40740740740741 5 0  19 5 0  18.5925925925926 5 0  18.18518518518519 5 0  17.77777777777778 5 0  17.37037037037037 5 0  16.96296296296296 5 0  16.55555555555556 5 0  16.14814814814815 5 0  15.74074074074074 5 0  15.33333333333333 5 0  14.92592592592593 5 0  14.51851851851852 5 0  14.11111111111111 5 0  13.70370370370371 5 0  13.2962962962963 5 0  12.88888888888889 5 0  12.48148148148148 5 0  12.07407407407408 5 0  11.66666666666667 5 0  11.25925925925926 5 0  10.85185185185185 5 0  10.44444444444445 5 0  10.03703703703704 5 0  9.629629629629633 5 0  9.222222222222221 5 0  8.814814814814817 5 0  8.407407407407408 5 0  7.5789473684193 5 0  7.157894736838599 5 0  6.73684210526082 5 0  6.315789473684795 5 0  5.894736842108769 5 0  5.473684210532742 5 0  5.052631578956715 5 0  4.631578947380689 5 0  4.210526315804662 5 0  3.789473684226299 5 0  3.368421052645599 5 0  2.947368421064898 5 0  2.526315789484198 5 0  2.105263157903499 5 0  1.6842105263228 5 0  1.2631578947421 5 0  0.8421052631613994 5 0  0.4210526315806993 5 0  0 4.545454545454545 0  0 4.09090909090909 0  0 3.636363636363634 0  0 3.18181818181818 0  0 2.727272727272726 0  0 2.272727272727271 0  0 1.818181818181817 0  0 1.363636363636363 0  0 0.9090909090909092 0  0 0.454545454545455 0  0 -0.4545454545450807 0  0 -0.9090909090895867 0  0 -1.363636363633713 0  0 -1.818181818177841 0  0 -2.272727272723127 0  0 -2.727272727269273 0  0 -3.181818181815419 0  0 -3.636363636361564 0  0 -4.090909090907709 0  0 -4.545454545453855 0  8 -4.499999999999999 0  8 -3.999999999999999 0  8 -3.499999999999999 0  8 -3 0  8.137254901963859 -2.5 0  8.274509803926303 -2.5 0  8.411764705886863 -2.5 0  8.549019607849138 -2.5 0  8.686274509809513 -2.5 0  8.82352941176989 -2.5 0  8.960784313730265 -2.5 0  9.098039215690642 -2.5 0  9.235294117651017 -2.5 0  9.372549019611395 -2.5 0  9.50980392157177 -2.5 0  9.647058823532147 -2.5 0  9.784313725492522 -2.5 0  9.921568627452897 -2.5 0  10.05882352941327 -2.5 0  10.19607843137365 -2.5 0  10.33333333333402 -2.5 0  10.4705882352944 -2.5 0  10.60784313725478 -2.5 0  10.74509803921515 -2.5 0  10.88235294117553 -2.5 0  11.0196078431359 -2.5 0  11.15686274509628 -2.5 0  11.29411764705665 -2.5 0  11.43137254901703 -2.5 0  11.56862745097915 -2.5 0  11.70588235294301 -2.5 0  11.84313725490686 -2.5 0  11.98039215687072 -2.5 0  12.11764705883209 -2.5 0  12.25490196079247 -2.5 0  12.39215686275285 -2.5 0  12.52941176471322 -2.5 0  12.6666666666736 -2.5 0  12.80392156863397 -2.5 0  12.94117647059435 -2.5 0  13.07843137255473 -2.5 0  13.2156862745151 -2.5 0  13.35294117647548 -2.5 0  13.49019607843586 -2.5 0  13.62745098039623 -2.5 0  13.76470588235661 -2.5 0  13.90196078431699 -2.5 0  14.03921568627736 -2.5 0  14.17647058823774 -2.5 0  14.31372549019812 -2.5 0  14.45098039215849 -2.5 0  14.58823529411887 -2.5 0  14.72549019607925 -2.5 0  14.86274509803962 -2.5 0  15.20270270270254 -2.5 0  15.40540540540509 -2.5 0  15.60810810810763 -2.5 0  15.81081081081017 -2.5 0  16.01351351351227 -2.5 0  16.21621621621265 -2.5 0  16.41891891891279 -2.5 0  16.62162162161294 -2.5 0  16.82432432431308 -2.5 0  17.02702702701322 -2.5 0  17.22972972971337 -2.5 0  17.43243243241351 -2.5 0  17.63513513511365 -2.5 0  17.83783783781379 -2.5 0  18.04054054051394 -2.5 0  18.24324324321408 -2.5 0  18.44594594591422 -2.5 0  18.64864864861436 -2.5 0  18.85135135131451 -2.5 0  19.05405405401465 -2.5 0  19.25675675671479 -2.5 0  19.45945945941494 -2.5 0  19.66216216211508 -2.5 0  19.86486486481522 -2.5 0  20.06756756751536 -2.5 0  20.27027027021551 -2.5 0  20.47297297291565 -2.5 0  20.6756756756158 -2.5 0  20.87837837831594 -2.5 0  21.08108108101608 -2.5 0  21.28378378371622 -2.5 0  21.48648648641637 -2.5 0  21.68918918911651 -2.5 0  21.89189189181666 -2.5 0  22.0945945945168 -2.5 0  22.29729729721694 -2.5 0  22.49999999991778 -2.5 0  22.70270270262203 -2.5 0  22.90540540532697 -2.5 0  23.10810810803191 -2.5 0  23.31081081073686 -2.5 0  23.5135135134418 -2.5 0  23.71621621614674 -2.5 0  23.91891891885169 -2.5 0  24.12162162155663 -2.5 0  24.32432432426158 -2.5 0  24.52702702696652 -2.5 0  24.72972972967146 -2.5 0  24.93243243237641 -2.5 0  25.13513513508135 -2.5 0  25.3378378377863 -2.5 0  25.54054054049124 -2.5 0  25.74324324319618 -2.5 0  25.94594594590112 -2.5 0  26.14864864860607 -2.5 0  26.35135135131101 -2.5 0  26.55405405401596 -2.5 0  26.7567567567209 -2.5 0  26.95945945942584 -2.5 0  27.16216216213079 -2.5 0  27.36486486483573 -2.5 0  27.56756756754068 -2.5 0  27.77027027024562 -2.5 0  27.97297297295056 -2.5 0  28.1756756756555 -2.5 0  28.37837837836045 -2.5 0  28.5810810810654 -2.5 0  28.78378378377034 -2.5 0  28.98648648647528 -2.5 0  29.18918918918023 -2.5 0  29.39189189188517 -2.5 0  29.59459459459011 -2.5 0  29.79729729729506 -2.5 0  30 -3.000000000000001 0  30 -3.500000000000001 0  30 -4.000000000000001 0  30 -4.5 0  8 4.499999999999999 0  8 3.999999999999999 0  8 3.499999999999999 0  8 3 0  8.137254901963859 2.5 0  8.274509803926303 2.5 0  8.411764705886863 2.5 0  8.549019607849138 2.5 0  8.686274509809513 2.5 0  8.82352941176989 2.5 0  8.960784313730265 2.5 0  9.098039215690642 2.5 0  9.235294117651017 2.5 0  9.372549019611395 2.5 0  9.50980392157177 2.5 0  9.647058823532147 2.5 0  9.784313725492522 2.5 0  9.921568627452897 2.5 0  10.05882352941327 2.5 0  10.19607843137365 2.5 0  10.33333333333402 2.5 0  10.4705882352944 2.5 0  10.60784313725478 2.5 0  10.74509803921515 2.5 0  10.88235294117553 2.5 0  11.0196078431359 2.5 0  11.15686274509628 2.5 0  11.29411764705665 2.5 0  11.43137254901703 2.5 0  11.56862745097915 2.5 0  11.70588235294301 2.5 0  11.84313725490686 2.5 0  11.98039215687072 2.5 0  12.11764705883209 2.5 0  12.25490196079247 2.5 0  1
[...]
<PointData  Vectors="f_17"> 
<DataArray  type="Float64"  Name="f_17"  NumberOfComponents="3" format="ascii">1.0000001315971270e+00 0.0000000000000000e+00 0.0000000000000000e+00  1.0389505365615637e+00 0.0000000000000000e+00 0.0000000000000000e+00  1.0618584671842410e+00 0.0000000000000000e+00 0.0000000000000000e+00  1.0873135241730436e+00 0.0000000000000000e+00 0.0000000000000000e+00  1.0769241110491898e+00 0.0000000000000000e+00 0.0000000000000000e+00  1.0525716314134324e+00 0.0000000000000000e+00 0.0000000000000000e+00  1.0419107412872508e+00 0.0000000000000000e+00 0.0000000000000000e+00  1.0000001315971270e+00 0.0000000000000000e+00 0.0000000000000000e+00  1.0192469759639475e+00 -4.9135785395745021e-02 0.0000000000000000e+00  1.0196206530182679e+00 7.9257821371906026e-02 0.0000000000000000e+00  1.0859691846040553e+00 6.9123710552104214e-02 0.0000000000000000e+00  1.0365749235305317e+00 7.7162497728601162e-02 0.0000000000000000e+00  1.1079679387314492e+00 4.8580793771090348e-02 0.0000000000000000e+00  1.0235337310708121e+00 5.2459097169516730e-02 0.0000000000000000e+00  0.0000000000000000e+00 0.0000000000000000e+00 0.0000000000000000e+00  0.0000000000000000e+00 0.0000000000000000e+00 0.0000000000000000e+00  1.0000001315971270e+00 0.0000000000000000e+00 0.0000000000000000e+00  9.9930223229987969e-01 0.0000000000000000e+00 0.0000000000000000e+00  9.9876196519660132e-01 0.0000000000000000e+00 0.0000000000000000e+00  1.0008074540582101e+00 0.0000000000000000e+00 0.0000000000000000e+00  1.0005821590448816e+00 0.0000000000000000e+00 0.0000000000000000e+00  1.0014655737185634e+00 0.0000000000000000e+00 0.0000000000000000e+00  1.0016544742656408e+00 0.0000000000000000e+00 0.0000000000000000e+00  1.0017770830773085e+00 0.0000000000000000e+00 0.0000000000000000e+00  1.0024043814261117e+00 0.0000000000000000e+00 0.0000000000000000e+00  1.0034188548885423e+00 0.0000000000000000e+00 0.0000000000000000e+00  1.0043463655385478e+00 0.0000000000000000e+00 0.0000000000000000e+00  1.0056285221780448e+00 0.0000000000000000e+00 0.0000000000000000e+00  1.0076952745661394e+00 0.0000000000000000e+00 0.0000000000000000e+00  1.0098806408390675e+00 0.0000000000000000e+00 0.0000000000000000e+00  1.0136533497827898e+00 0.0000000000000000e+00 0.0000000000000000e+00  1.0152053779679113e+00 0.0000000000000000e+00 0.0000000000000000e+00  1.0195579441418070e+00 0.0000000000000000e+00 0.0000000000000000e+00  1.0260738478722597e+00 0.0000000000000000e+00 0.0000000000000000e+00  1.0312596328633441e+00 0.0000000000000000e+00 0.0000000000000000e+00  1.0467421871166849e+00 0.0000000000000000e+00 0.0000000000000000e+00  1.0550514214044662e+00 0.0000000000000000e+00 0.0000000000000000e+00  1.0629097704932726e+00 0.0000000000000000e+00 0.0000000000000000e+00  1.0713709325656264e+00 0.0000000000000000e+00 0.0000000000000000e+00  1.0785314448185925e+00 0.0000000000000000e+00 0.0000000000000000e+00  1.0851573608537408e+00 0.0000000000000000e+00 0.0000000000000000e+00  1.0914519722233182e+00 0.0000000000000000e+00 0.0000000000000000e+00  1.0951538742069702e+00 0.0000000000000000e+00 0.0000000000000000e+00  1.0978269212770331e+00 0.0000000000000000e+00 0.0000000000000000e+00  1.0984270966772165e+00 0.0000000000000000e+00 0.0000000000000000e+00  1.0974997748504349e+00 0.0000000000000000e+00 0.0000000000000000e+00  1.0935803855756545e+00 0.0000000000000000e+00 0.0000000000000000e+00  1.0888703564198285e+00 0.0000000000000000e+00 0.0000000000000000e+00  1.0823789099191099e+00 0.0000000000000000e+00 0.0000000000000000e+00  1.0747922019488760e+00 0.0000000000000000e+00 0.0000000000000000e+00  1.0673277878035019e+00 0.0000000000000000e+00 0.0000000000000000e+00  1.0602972504138388e+00 0.0000000000000000e+00 0.0000000000000000e+00  1.0547529906668915e+00 0.0000000000000000e+00 0.0000000000000000e+00  1.0508454468018118e+00 0.0000000000000000e+00 0.0000000000000000e+00  1.0490020962763804e+00 0.0000000000000000e+00 0.0000000000000000e+00  1.0504810806557270e+00 0.0000000000000000e+00 0.0000000000000000e+00  1.0540461684208722e+00 0.0000000000000000e+00 0.0000000000000000e+00  1.0572644163419942e+00 0.0000000000000000e+00 0.0000000000000000e+00  1.0610332730388201e+00 0.0000000000000000e+00 0.0000000000000000e+00  1.0633899316734998e+00 0.0000000000000000e+00 0.0000000000000000e+00  1.0635762293837410e+00 0.0000000000000000e+00 0.0000000000000000e+00  1.0619539043504833e+00 0.0000000000000000e+00 0.0000000000000000e+00  1.0578768682331527e+00 0.0000000000000000e+00 0.0000000000000000e+00  1.0527483828328135e+00 0.0000000000000000e+00 0.0000000000000000e+00  1.0477763300517755e+00 0.0000000000000000e+00 0.0000000000000000e+00  1.0430097760791457e+00 0.0000000000000000e+00 0.0000000000000000e+00  1.0398731483237207e+00 0.0000000000000000e+00 0.0000000000000000e+00  1.0405823281362971e+00 0.0000000000000000e+00 0.0000000000000000e+00  1.0425535777083490e+00 0.0000000000000000e+00 0.0000000000000000e+00  1.0462255964663121e+00 0.0000000000000000e+00 0.0000000000000000e+00  1.0520700683774520e+00 0.0000000000000000e+00 0.0000000000000000e+00  1.0569579181231541e+00 0.0000000000000000e+00 0.0000000000000000e+00  1.0605454207026881e+00 0.0000000000000000e+00 0.0000000000000000e+00  1.0636064859486425e+00 0.0000000000000000e+00 0.0000000000000000e+00  1.0634419738823095e+00 0.0000000000000000e+00 0.0000000000000000e+00  1.0609310620940107e+00 0.0000000000000000e+00 0.0000000000000000e+00  1.0577553703151461e+00 0.0000000000000000e+00 0.0000000000000000e+00  1.0534383087095129e+00 0.0000000000000000e+00 0.0000000000000000e+00  1.0497347293515094e+00 0.0000000000000000e+00 0.0000000000000000e+00  1.0481280816280611e+00 0.0000000000000000e+00 0.0000000000000000e+00  1.0475350211399472e+00 0.0000000000000000e+00 0.0000000000000000e+00  1.0486508106119945e+00 0.0000000000000000e+00 0.0000000000000000e+00  1.0539074652937082e+00 0.0000000000000000e+00 0.0000000000000000e+00  1.0578804018228891e+00 0.0000000000000000e+00 0.0000000000000000e+00  1.0601762452683763e+00 0.0000000000000000e+00 0.0000000000000000e+00  1.0624815005051182e+00 0.0000000000000000e+00 0.0000000000000000e+00  1.0646388271976408e+00 0.0000000000000000e+00 0.0000000000000000e+00  1.0638658760228925e+00 0.0000000000000000e+00 0.0000000000000000e+00  1.0583441562058042e+00 0.0000000000000000e+00 0.0000000000000000e+00  1.0540584767043544e+00 0.0000000000000000e+00 0.0000000000000000e+00  1.0506634902793550e+00 0.0000000000000000e+00 0.0000000000000000e+00  1.0498018255373336e+00 0.0000000000000000e+00 0.0000000000000000e+00  1.0510744303054769e+00 0.0000000000000000e+00 0.0000000000000000e+00  1.0535912445098594e+00 0.0000000000000000e+00 0.0000000000000000e+00  1.0574869673341318e+00 0.0000000000000000e+00 0.0000000000000000e+00  1.0617686104548951e+00 0.0000000000000000e+00 0.0000000000000000e+00  1.0655083471952245e+00 0.0000000000000000e+00 0.0000000000000000e+00  1.0672197911921861e+00 0.0000000000000000e+00 0.0000000000000000e+00  1.0677009605363510e+00 0.0000000000000000e+00 0.0000000000000000e+00  1.0661319470428381e+00 0.0000000000000000e+00 0.0000000000000000e+00  1.0631849288711626e+00 0.0000000000000000e+00 0.0000000000000000e+00  1.0603903942782735e+00 0.0000000000000000e+00 0.0000000000000000e+00  1.0581224752667366e+00 0.0000000000000000e+00 0.0000000000000000e+00  1.0578424705742147e+00 0.0000000000000000e+00 0.0000000000000000e+00  1.0588096545826382e+00 0.0000000000000000e+00 0.0000000000000000e+00  1.0624047022519292e+00 0.0000000000000000e+00 0.0000000000000000e+00  1.0673831757315502e+00 0.0000000000000000e+00 0.0000000000000000e+00  1.0738064951369279e+00 0.0000000000000000e+00 0.0000000000000000e+00  1.0793141365432977e+00 0.0000000000000000e+00 0.0000000000000000e+00  1.0842004837558727e+00 0.0000000000000000e+00 0.0000000000000000e+00  1.0862840626047914e+00 0.0000000000000000e+00 0.0000000000000000e+00  1.0888293119665393e+00 3.3613461161566749e-04 0.0000000000000000e+00  1.0928850963557954e+00 1.3483552964599721e-03 0.0000000000000000e+00  1.1007824805676447e+00 4.1508117030927280e-03 0.0000000000000000e+00  1.1137076406744704e+00 1.0811875919087281e-02 0.0000000000000000e+00  1.1351743993349424e+00 2.5771775797987503e-02 0.0000000000000000e+00  1.1532096116141806e+00 4.9761644072083125e-02 0.0000000000000000e+00  1.1458602002389213e+00 9.2050403881656626e-02 0.0000000000000000e+00  1.0940013526338943e+00 1.4089939590851538e-01 0.0000000000000000e+00  9.9426021818454347e-01 1.9325500684216221e-01 0.0000000000000000e+00  8.7292787546757911e-01 2.2757394878229859e-01 0.0000000000000000e+00  7.7331601306730324e-01 2.4817788521806397e-01 0.0000000000000000e+00  7.2541837827602929e-01 2.4970482381009904e-01 0.0000000000000000e+00  7.3648318161433246e-01 2.4138620763012186e-01 0.0000000000000000e+00  7.8728701961103431e-01 2.3285587546682252e-01 0.0000000000000000e+00  8.6068114898822923e-01 2.0884492649379546e-01 0.0000000000000000e+00  9.2997112666656789e-01 1.6907677984127487e-01 0.0000000000000000e+00  9.7942172380467030e-01 1.2206997612201230e-01 0.0000000000000000e+00  1.0135753037300301e+00 7.9432773643717078e-02 0.0000000000000000e+00  1.0395093491055063e+00 5.4211058351168101e-02 0.0000000000000000e+00  1.0584332270410672e+00 3.6279460667980920e-02 0.0000000000000000e+00  1.0689459258202034e+00 2.3919926358233295e-02 0.0000000000000000e+00  1.0747702581081107e+00 1.4458803426667317e-02 0.0000000000000000e+00  1.0768032838219199e+00 6.7079303403290011e-03 0.0000000000000000e+00  1.0712783092212872e+00 0.0000000000000000e+00 0.0000000000000000e+00  1.0680716475431025e+00 0.0000000000000000e+00 0.0000000000000000e+00  1.0670670358699756e+00 0.0000000000000000e+00 0.0000000000000000e+00  1.0681854383018352e+00 0.0000000000000000e+00 0.0000000000000000e+00  1.0694802228466527e+00 0.0000000000000000e+00 0.0000000000000000e+00  1.0710421508612968e+00 0.0000000000000000e+00 0.0000000000000000e+00  1.0718559232777802e+00 0.0000000000000000e+00 0.0000000000000000e+00  1.0711763507024330e+00 0.0000000000000000e+00 0.0000000000000000e+00  1.0680823861730100e+00 0.0000000000000000e+00 0.0000000000000000e+00  1.0639780059344139e+00 0.0000000000000000e+00 0.0000000000000000e+00  1.0592454580632076e+00 0.0000000000000000e+00 0.0000000000000000e+00  1.0548174989077073e+00 0.0000000000000000e+00 0.0000000000000000e+00  1.0518698784101723e+00 0.0000000000000000e+00 0.0000000000000000e+00  1.0515714868227728e+00 0.0000000000000000e+00 0.0000000000000000e+00  1.0526005268421346e+00 0.0000000000000000e+00 0.0000000000000000e+00  1.0561420538777244e+00 0.0000000000000000e+00 0.0000000000000000e+00  1.0592482891611936e+00 0.0000000000000000e+00 0.0000000000000000e+00  1.0626273838295859e+00 0.0000000000000000e+00 0.0000000000000000e+00  1.0645246654124452e+00 0.0000000000000000e+00 0.0000000000000000e+00  1.0652200172829671e+00 0.0000000000000000e+00 0.0000000000000000e+00  1.0637440849025999e+00 0.0000000000000000e+00 0.0000000000000000e+00  1.0601647925232867e+00 0.0000000000000000e+00 0.0000000000000000e+00  1.0564595579439240e+00 0.0000000000000000e+00 0.0000000000000000e+00  1.0491576288255182e+00 0.0000000000000000e+00 0.0000000000000000e+00  1.0480660795736021e+00 0.0000000000000000e+00 0.0000000000000000e+00  1.0478822692929133e+00 0.0000000000000000e+00 0.0000000000000000e+00  1.0510029649109707e+00 0.0000000000000000e+00 0.0000000000000000e+00  1.0562247960536242e+00 0.0000000000000000e+00 0.0000000000000000e+00  1.0603958064498042e+00 0.0000000000000000e+00 0.0000000000000000e+00  1.0619899017685230e+00 0.0000000000000000e+00 0.0000000000000000e+00  1.0641369948200583e+00 0.0000000000000000e+00 0.0000000000000000e+00  1.0639336894307170e+00 0.0000000000000000e+00 0.0000000000000000e+00  1.0608063486672024e+00 0.0000000000000000e+00 0.0000000000000000e+00  1.0567811677019545e+00 0.0000000000000000e+00 0.0000000000000000e+00  1.0521147478625070e+00 0.0000000000000000e+00 0.0000000000000000e+00  1.0471901933469221e+00 0.0000000000000000e+00 0.0000000000000000e+00  1.0444806151426667e+00 0.0000000000000000e+00 0.0000000000000000e+00  1.0437090927736463e+00 0.0000000000000000e+00 0.0000000000000000e+00  1.0441669442802306e+00 0.0000000000000000e+00 0.0000000000000000e+00  1.0478041692220179e+00 0.0000000000000000e+00 0.0000000000000000e+00  1.0524741753473614e+00 0.0000000000000000e+00 0.0000000000000000e+00  1.0564501833245841e+00 0.0000000000000000e+00 0.0000000000000000e+00  1.0603143301567386e+00 0.0000000000000000e+00 0.0000000000000000e+00  1.0621294611596015e+00 0.0000000000000000e+00 0.0000000000000000e+00  1.0604865810438535e+00 0.0000000000000000e+00 0.0000000000000000e+00  1.0578950047230367e+00 0.0000000000000000e+00 0.0000000000000000e+00  1.0535096135564059e+00 0.0000000000000000e+00 0.0000000000000000e+00  1.0475441167457682e+00 0.0000000000000000e+00 0.0000000000000000e+00  1.0426198071337311e+00 0.0000000000000000e+00 0.0000000000000000e+00  1.0392327977137494e+00 0.0000000000000000e+00 0.0000000000000000e+00  1.0378117931306869e+00 0.0000000000000000e+00 0.0000000000000000e+00  1.0392896049978455e+00 0.0000000000000000e+00 0.0000000000000000e+00  1.0431702403924530e+00 0.0000000000000000e+00 0.0000000000000000e+00  1.0484297196207411e+00 0.0000000000000000e+00 0.0000000000000000e+00  1.0553401451188977e+00 0.0000000000000000e+00 0.0000000000000000e+00  1.0609221280596450e+00 0.0000000000000000e+00 0.0000000000000000e+00  1.0659246173496963e+00 0.0000000000000000e+00 0.0000000000000000e+00  1.0701882581707525e+00 0.0000000000000000e+00 0.0000000000000000e+00  1.0725949927297247e+00 0.0000000000000000e+00 0.0000000000000000e+00  1.0731286884443219e+00 0.0000000000000000e+00 0.0000000000000000e+00  1.0724723571588841e+00 0.0000000000000000e+00 0.0000000000000000e+00  1.0722315032084375e+00 0.0000000000000000e+00 0.0000000000000000e+00  1.0734143538856196e+00 0.0000000000000000e+00 0.0000000000000000e+00  1.0748279712097053e+00 0.0000000000000000e+00 0.0000000000000000e+00  1.0770926803432244e+00 0.0000000000000000e+00 0.0000000000000000e+00  1.0814212903123759e+00 0.0000000000000000e+00 0.0000000000000000e+00  1.0841005243569279e+00 0.0000000000000000e+00 0.0000000000000000e+00  1.0869400758011816e+00 0.0000000000000000e+00 0.0000000000000000e+00  1.0880831305358378e+00 0.0000000000000000e+00 0.0000000000000000e+00  1.0868177665624601e+00 0.0000000000000000e+00 0.0000000000000000e+00  1.0837522353864819e+00 0.0000000000000000e+00 0.0000000000000000e+00  1.0791958363394027e+00 0.0000000000000000e+00 0.0000000000000000e+00  1.0731585164615809e+00 0.0000000000000000e+00 0.0000000000000000e+00  1.0653384011878266e+00 0.0000000000000000e+00 0.0000000000000000e+00  1.0579756604865389e+00 0.0000000000000000e+00 0.0000000000000000e+00  1.0498080194079562e+00 0.0000000000000000e+00 0.0000000000000000e+00  1.0342247919543743e+00 0.0000000000000000e+00 0.0000000000000000e+00  1.0275428532291022e+00 0.0000000000000000e+00 0.0000000000000000e+00  1.0222534111226858e+00 0.0000000000000000e+00 0.0000000000000000e+00  1.0175191623621476e+00 0.0000000000000000e+00 0.0000000000000000e+00  1.0136464145059341e+00 0.0000000000000000e+00 0.0000000000000000e+00  1.0105842163605343e+00 0.0000000000000000e+00 0.0000000000000000e+00  1.0082301187851634e+00 0.0000000000000000e+00 0.0000000000000000e+00  1.0059294439993509e+00 0.0000000000000000e+00 0.0000000000000000e+00  1.0042935234550316e+00 0.0000000000000000e+00 0.0000000000000000e+00  1.0031082594419671e+00 0.0000000000000000e+00 0.0000000000000000e+00  1.0017686295685522e+00 0.0000000000000000e+00 0.0000000000000000e+00  1.0014749614415808e+00 0.0000000000000000e+00 0.0000000000000000e+00  1.0003026233634471e+00 0.0000000000000000e+00 0.0000000000000000e+00  1.0002035472901625e+00 0.0000000000000000e+00 0.0000000000000000e+00  9.9977138730030768e-01 0.0000000000000000e+00 0.0000000000000000e+00  1.0004413392278122e+00 0.0000000000000000e+00 0.0000000000000000e+00  1.0002183830863196e+00 0.0000000000000000e+00 0.0000000000000000e+00  9.9979164851132918e-01 0.0000000000000000e+00 0.0000000000000000e+00  1.0000001315971270e+00 0.0000000000000000e+00 0.0000000000000000e+00  1.0000001315971270e+00 0.0000000000000000e+00 0.0000000000000000e+00  1.0000001315971270e+00 0.0000000000000000e+00 0.0000000000000000e+00  1.0000001315971270e+00 0.0000000000000000e+00 0.0000000000000000e+00  1.0000001315971270e+00 0.0000000000000000e+00 0.0000000000000000e+00  1.0000001315971270e+00 0.0000000000000000e+00 0.0000000000000000e+00  1.0000001315971270e+00 0.0000000000000000e+00 0.0000000000000000e+00  1.0000001315971270e+00 0.0000000000000000e+00 0.0000000000000000e+00  1.0000001315971270e+00 0.0000000000000000e+00 0.0000000000000000e+00  1.0000001315971270e+00 0.0000000000000000e+00 0.0000000000000000e+00  1.0000001315971270e+00 0.0000000000000000e+00 0.0000000000000000e+00  1.0000001315971270e+00 0.0000000000000000e+00 0.0000000000000000e+00  1.0000001315971270e+00 0.0000000000000000e+00 0.0000000000000000e+00  1.0000001315971270e+00 0.0000000000000000e+00 0.0000000000000000e+00  1.0000001315971270e+00 0.0000000000000000e+00 0.0000000000000000e+00  1.0000001315971270e+00 0.0000000000000000e+00 0.0000000000000000e+00  1.0000001315971270e+00 0.0000000000000000e+00 0.0000000000000000e+00  1.0000001315971270e+00 0.0000000000000000e+00 0.0000000000000000e+00  1.0000001315971270e+00 0.0000000000000000e+00 0.0000000000000000e+00  1.0000001315971270e+00 0.0000000000000000e+00 0.0000000000000000e+00  1.0383211242921497e+00 -9.0676406716883283e-03 0.0000000000000000e+00  1.0353046087324549e+00 -1.8310447682710056e-02 0.0000000000000000e+00  1.0330797878689273e+00 -2.8305221379571956e-02 0.0000000000000000e+00  1.0274568310515941e+00 -3.8631355292384796e-02 0.0000000000000000e+00  1.0217825351532357e+00 -5.2648012639610012e-02 0.0000000000000000e+00  1.0260656280949925e+00 -5.5816964707798726e-02 0.0000000000000000e+00  1.0299067059935305e+00 -5.9053143744145234e-02 0.0000000000000000e+00  1.0347360196080666e+00 -6.1964493682863053e-02 0.0000000000000000e+00  1.0397710762184427e+00 -6.4722979271854442e-02 0.0000000000000000e+00  1.0453742547430143e+00 -6.7042115980361777e-02 0.0000000000000000e+00  1.0514908572437918e+00 -6.9012544865225997e-02 0.0000000000000000e+00  1.0579372733159920e+00 -7.0325863369417749e-02 0.0000000000000000e+00  1.0648172377572365e+00 -7.1091731644754658e-02 0.0000000000000000e+00  1.0716657045335809e+00 -7.0996231457905082e-02 0.0000000000000000e+00  1.0787122508816858e+00 -7.0317132825780962e-02 0.0000000000000000e+00  1.0855968692334423e+00 -6.8974701300347899e-02 0.0000000000000000e+00  1.0924289979117927e+00 -6.6647530620212114e-02 0.0000000000000000e+00  1.0987054886502476e+00 -6.3527860270907621e-02 0.0000000000000000e+00  1.1044855210643341e+00 -5.9961020542214499e-02 0.0000000000000000e+00  1.1096516136937453e+00 -5.5847761349062636e-02 0.0000000000000000e+00  1.1140551885093146e+00 -5.1381365481200529e-02 0.0000000000000000e+00  1.1176548952982950e+00 -4.6677387860271292e-02 0.0000000000000000e+00  1.1206028747012948e+00 -4.2043358379451223e-02 0.0000000000000000e+00  1.1228292955757024e+00 -3.7346593338943086e-02 0.0000000000000000e+00  1.1244837149638145e+00 -3.3165971486115331e-02 0.0000000000000000e+00  1.1256532162139763e+00 -2.8995947479359740e-02 0.0000000000000000e+00  1.1264822880831873e+00 -2.5277269891411141e-02 0.0000000000000000e+00  1.1272434514729130e+00 -2.2087889348277264e-02 0.0000000000000000e+00  1.1279762390112917e+00 -1.9278209641732307e-02 0.0000000000000000e+00  1.1288251586168645e+00 -1.6753075278958147e-02 0.0000000000000000e+00  1.1299215019821005e+00 -1.4282956188985967e-02 0.0000000000000000e+00  1.1313839649955382e+00 -1.1837869114605076e-02 0.0000000000000000e+00  1.1330807766604101e+00 -9.1557928806653699e-03 0.0000000000000000e+00  1.1351431175612010e+00 -6.0579374466354112e-03 0.0000000000000000e+00  1.1373432150363980e+00 -2.4140793758973596e-03 0.0000000000000000e+00  1.1395368625554101e+00 1.9840621895074561e-03 