<?xml version="1.0"?>
<VTKFile type="UnstructuredGrid"  version="0.1"  >
<UnstructuredGrid>
<Piece  NumberOfPoints="10199" NumberOfCells="20110">
<Points>
<DataArray  type="Float64"  NumberOfComponents="3"  format="ascii">0 -5 0  8 -5 0  30 -5 0  40 -5 0  40 5 0  30 5 0  8 5 0  0 5 0  8 -2.5 0  15 -2.5 0  30 -2.5 0  30 2.5 0  15 2.5 0  8 2.5 0  10 0.5 0  10 -0.5 0  0 0 0  0.4210526315780956 -5 0  0.8421052631563433 -5 0  1.263157894734281 -5 0  1.684210526311999 -5 0  2.105263157889717 -5 0  2.526315789467435 -5 0  2.947368421045153 -5 0  3.368421052622872 -5 0  3.78947368420059 -5 0  4.210526315779479 -5 0  4.631578947359537 -5 0  5.052631578939595 -5 0  5.473684210519653 -5 0  5.89473684209971 -5 0  6.315789473679768 -5 0  6.736842105259826 -5 0  7.157894736839884 -5 0  7.578947368419942 -5 0  8.407407407405314 -5 0  8.814814814810628 -5 0  9.222222222215942 -5 0  9.629629629621256 -5 0  10.03703703702657 -5 0  10.44444444443188 -5 0  10.8518518518372 -5 0  11.25925925924251 -5 0  11.66666666664783 -5 0  12.07407407405314 -5 0  12.48148148145846 -5 0  12.88888888886377 -5 0  13.29629629626908 -5 0  13.7037037036744 -5 0  14.11111111107971 -5 0  14.51851851848502 -5 0  14.92592592589034 -5 0  15.33333333329565 -5 0  15.74074074070096 -5 0  16.14814814810754 -5 0  16.55555555551614 -5 0  16.96296296292474 -5 0  17.37037037033335 -5 0  17.77777777774195 -5 0  18.18518518515056 -5 0  18.59259259255916 -5 0  18.99999999996776 -5 0  19.40740740737636 -5 0  19.81481481478497 -5 0  20.22222222219357 -5 0  20.62962962960217 -5 0  21.03703703701077 -5 0  21.44444444441937 -5 0  21.85185185182797 -5 0  22.25925925923657 -5 0  22.66666666664518 -5 0  23.07407407405378 -5 0  23.48148148146238 -5 0  23.88888888887098 -5 0  24.29629629627958 -5 0  24.70370370368818 -5 0  25.11111111109678 -5 0  25.51851851850539 -5 0  25.92592592591399 -5 0  26.33333333332259 -5 0  26.74074074073119 -5 0  27.14814814813979 -5 0  27.55555555554839 -5 0  27.96296296295699 -5 0  28.3703703703656 -5 0  28.7777777777742 -5 0  29.1851851851828 -5 0  29.5925925925914 -5 0  30.41666666667852 -5 0  30.83333333335704 -5 0  31.25000000003556 -5 0  31.66666666671408 -5 0  32.08333333338936 -5 0  32.50000000005308 -5 0  32.9166666667168 -5 0  33.33333333338052 -5 0  33.75000000004424 -5 0  34.16666666670795 -5 0  34.58333333337167 -5 0  35.00000000003539 -5 0  35.41666666669911 -5 0  35.83333333336282 -5 0  36.25000000002654 -5 0  36.66666666669026 -5 0  37.08333333335398 -5 0  37.50000000001769 -5 0  37.91666666668141 -5 0  38.33333333334513 -5 0  38.75000000000885 -5 0  39.16666666667257 -5 0  39.58333333333628 -5 0  40 -4.583333333332821 0  40 -4.166666666665642 0  40 -3.74999999999855 0  40 -3.333333333333135 0  40 -2.916666666667806 0  40 -2.500000000002478 0  40 -2.083333333337148 0  40 -1.666666666671818 0  40 -1.250000000006488 0  40 -0.8333333333405228 0  40 -0.4166666666733416 0  40 -6.163070054299169e-12 0  40 0.4166666666610173 0  40 0.8333333333281976 0  40 1.249999999995378 0  40 1.666666666662558 0  40 2.083333333329739 0  40 2.499999999996919 0  40 2.916666666664099 0  40 3.33333333333128 0  40 3.74999999999846 0  40 4.166666666665641 0  40 4.583333333332821 0  39.58333333333628 5 0  39.16666666667256 5 0  38.75000000000885 5 0  38.33333333334513 5 0  37.91666666668141 5 0  37.50000000001769 5 0  37.08333333335398 5 0  36.66666666669025 5 0  36.25000000002654 5 0  35.83333333336282 5 0  35.41666666669911 5 0  35.00000000003539 5 0  34.58333333337167 5 0  34.16666666670795 5 0  33.75000000004424 5 0  33.33333333338052 5 0  32.9166666667168 5 0  32.50000000005308 5 0  32.08333333338936 5 0  31.66666666671408 5 0  31.25000000003556 5 0  30.83333333335704 5 0  30.41666666667852 5 0  29.59259259259259 5 0  29.18518518518519 5 0  28.77777777777778 5 0  28.37037037037037 5 0  27.96296296296296 5 0  27.55555555555556 5 0  27.14814814814815 5 0  26.74074074074074 5 0  26.33333333333333 5 0  25.92592592592593 5 0  25.51851851851852 5 0  25.11111111111111 5 0  24.7037037037037 5 0  24.2962962962963 5 0  23.88888888888889 5 0  23.48148148148148 5 0  23.07407407407408 5 0  22.66666666666667 5 0  22.25925925925926 5 0  21.85185185185185 5 0  21.44444444444445 5 0  21.03703703703704 5 0  20.62962962962963 5 0  20.22222222222222 5 0  19.81481481481482 5 0  19.40740740740741 5 0  19 5 0  18.5925925925926 5 0  18.18518518518519 5 0  17.77777777777778 5 0  17.37037037037037 5 0  16.96296296296296 5 0  16.55555555555556 5 0  16.14814814814815 5 0  15.74074074074074 5 0  15.33333333333333 5 0  14.92592592592593 5 0  14.51851851851852 5 0  14.11111111111111 5 0  13.70370370370371 5 0  13.2962962962963 5 0  12.88888888888889 5 0  12.48148148148148 5 0  12.07407407407408 5 0  11.66666666666667 5 0  11.25925925925926 5 0  10.85185185185185 5 0  10.44444444444445 5 0  10.03703703703704 5 0  9.629629629629633 5 0  9.222222222222221 5 0  8.814814814814817 5 0  8.407407407407408 5 0  7.5789473684193 5 0  7.157894736838599 5 0  6.73684210526082 5 0  6.315789473684795 5 0  5.894736842108769 5 0  5.473684210532742 5 0  5.052631578956715 5 0  4.631578947380689 5 0  4.210526315804662 5 0  3.789473684226299 5 0  3.368421052645599 5 0  2.947368421064898 5 0  2.526315789484198 5 0  2.105263157903499 5 0  1.6842105263228 5 0  1.2631578947421 5 0  0.8421052631613994 5 0  0.4210526315806993 5 0  0 4.545454545454545 0  0 4.09090909090909 0  0 3.636363636363634 0  0 3.18181818181818 0  0 2.727272727272726 0  0 2.272727272727271 0  0 1.818181818181817 0  0 1.363636363636363 0  0 0.9090909090909092 0  0 0.454545454545455 0  0 -0.4545454545450807 0  0 -0.9090909090895867 0  0 -1.363636363633713 0  0 -1.818181818177841 0  0 -2.272727272723127 0  0 -2.727272727269273 0  0 -3.181818181815419 0  0 -3.636363636361564 0  0 -4.090909090907709 0  0 -4.545454545453855 0  8 -4.499999999999999 0  8 -3.999999999999999 0  8 -3.499999999999999 0  8 -3 0  8.137254901963859 -2.5 0  8.274509803926303 -2.5 0  8.411764705886863 -2.5 0  8.549019607849138 -2.5 0  8.686274509809513 -2.5 0  8.82352941176989 -2.5 0  8.960784313730265 -2.5 0  9.098039215690642 -2.5 0  9.235294117651017 -2.5 0  9.372549019611395 -2.5 0  9.50980392157177 -2.5 0  9.647058823532147 -2.5 0  9.784313725492522 -2.5 0  9.921568627452897 -2.5 0  10.05882352941327 -2.5 0  10.19607843137365 -2.5 0  10.33333333333402 -2.5 0  10.4705882352944 -2.5 0  10.60784313725478 -2.5 0  10.74509803921515 -2.5 0  10.88235294117553 -2.5 0  11.0196078431359 -2.5 0  11.15686274509628 -2.5 0  11.29411764705665 -2.5 0  11.43137254901703 -2.5 0  11.56862745097915 -2.5 0  11.70588235294301 -2.5 0  11.84313725490686 -2.5 0  11.98039215687072 -2.5 0  12.11764705883209 -2.5 0  12.25490196079247 -2.5 0  12.39215686275285 -2.5 0  12.52941176471322 -2.5 0  12.6666666666736 -2.5 0  12.80392156863397 -2.5 0  12.94117647059435 -2.5 0  13.07843137255473 -2.5 0  13.2156862745151 -2.5 0  13.35294117647548 -2.5 0  13.49019607843586 -2.5 0  13.62745098039623 -2.5 0  13.76470588235661 -2.5 0  13.90196078431699 -2.5 0  14.03921568627736 -2.5 0  14.17647058823774 -2.5 0  14.31372549019812 -2.5 0  14.45098039215849 -2.5 0  14.58823529411887 -2.5 0  14.72549019607925 -2.5 0  14.86274509803962 -2.5 0  15.20270270270254 -2.5 0  15.40540540540509 -2.5 0  15.60810810810763 -2.5 0  15.81081081081017 -2.5 0  16.01351351351227 -2.5 0  16.21621621621265 -2.5 0  16.41891891891279 -2.5 0  16.62162162161294 -2.5 0  16.82432432431308 -2.5 0  17.02702702701322 -2.5 0  17.22972972971337 -2.5 0  17.43243243241351 -2.5 0  17.63513513511365 -2.5 0  17.83783783781379 -2.5 0  18.04054054051394 -2.5 0  18.24324324321408 -2.5 0  18.44594594591422 -2.5 0  18.64864864861436 -2.5 0  18.85135135131451 -2.5 0  19.05405405401465 -2.5 0  19.25675675671479 -2.5 0  19.45945945941494 -2.5 0  19.66216216211508 -2.5 0  19.86486486481522 -2.5 0  20.06756756751536 -2.5 0  20.27027027021551 -2.5 0  20.47297297291565 -2.5 0  20.6756756756158 -2.5 0  20.87837837831594 -2.5 0  21.08108108101608 -2.5 0  21.28378378371622 -2.5 0  21.48648648641637 -2.5 0  21.68918918911651 -2.5 0  21.89189189181666 -2.5 0  22.0945945945168 -2.5 0  22.29729729721694 -2.5 0  22.49999999991778 -2.5 0  22.70270270262203 -2.5 0  22.90540540532697 -2.5 0  23.10810810803191 -2.5 0  23.31081081073686 -2.5 0  23.5135135134418 -2.5 0  23.71621621614674 -2.5 0  23.91891891885169 -2.5 0  24.12162162155663 -2.5 0  24.32432432426158 -2.5 0  24.52702702696652 -2.5 0  24.72972972967146 -2.5 0  24.93243243237641 -2.5 0  25.13513513508135 -2.5 0  25.3378378377863 -2.5 0  25.54054054049124 -2.5 0  25.74324324319618 -2.5 0  25.94594594590112 -2.5 0  26.14864864860607 -2.5 0  26.35135135131101 -2.5 0  26.55405405401596 -2.5 0  26.7567567567209 -2.5 0  26.95945945942584 -2.5 0  27.16216216213079 -2.5 0  27.36486486483573 -2.5 0  27.56756756754068 -2.5 0  27.77027027024562 -2.5 0  27.97297297295056 -2.5 0  28.1756756756555 -2.5 0  28.37837837836045 -2.5 0  28.5810810810654 -2.5 0  28.78378378377034 -2.5 0  28.98648648647528 -2.5 0  29.18918918918023 -2.5 0  29.39189189188517 -2.5 0  29.59459459459011 -2.5 0  29.79729729729506 -2.5 0  30 -3.000000000000001 0  30 -3.500000000000001 0  30 -4.000000000000001 0  30 -4.5 0  8 4.499999999999999 0  8 3.999999999999999 0  8 3.499999999999999 0  8 3 0  8.137254901963859 2.5 0  8.274509803926303 2.5 0  8.411764705886863 2.5 0  8.549019607849138 2.5 0  8.686274509809513 2.5 0  8.82352941176989 2.5 0  8.960784313730265 2.5 0  9.098039215690642 2.5 0  9.235294117651017 2.5 0  9.372549019611395 2.5 0  9.50980392157177 2.5 0  9.647058823532147 2.5 0  9.784313725492522 2.5 0  9.921568627452897 2.5 0  10.05882352941327 2.5 0  10.19607843137365 2.5 0  10.33333333333402 2.5 0  10.4705882352944 2.5 0  10.60784313725478 2.5 0  10.74509803921515 2.5 0  10.88235294117553 2.5 0  11.0196078431359 2.5 0  11.15686274509628 2.5 0  11.29411764705665 2.5 0  11.43137254901703 2.5 0  11.56862745097915 2.5 0  11.70588235294301 2.5 0  11.84313725490686 2.5 0  11.98039215687072 2.5 0  12.11764705883209 2.5 0  12.25490196079247 2.5 0  1
[...]
<PointData  Vectors="f_17"> 
<DataArray  type="Float64"  Name="f_17"  NumberOfComponents="3" format="ascii">1.0000001326879855e+00 0.0000000000000000e+00 0.0000000000000000e+00  1.0452340717140511e+00 0.0000000000000000e+00 0.0000000000000000e+00  1.1291856765101178e+00 0.0000000000000000e+00 0.0000000000000000e+00  1.0350539956730902e+00 0.0000000000000000e+00 0.0000000000000000e+00  1.0352628009895064e+00 0.0000000000000000e+00 0.0000000000000000e+00  1.0831738568745894e+00 0.0000000000000000e+00 0.0000000000000000e+00  1.0463313966476882e+00 0.0000000000000000e+00 0.0000000000000000e+00  1.0000001326879855e+00 0.0000000000000000e+00 0.0000000000000000e+00  1.0205936729763621e+00 -5.6109266888176544e-02 0.0000000000000000e+00  1.0592153040870249e+00 7.4610117279206842e-02 0.0000000000000000e+00  1.1537184718780207e+00 -1.3402464469203410e-01 0.0000000000000000e+00  1.0028452344733785e+00 -6.2692658827717546e-02 0.0000000000000000e+00  1.1514804981107889e+00 2.4274043852269511e-02 0.0000000000000000e+00  1.0229753645252249e+00 5.7273995431416307e-02 0.0000000000000000e+00  0.0000000000000000e+00 0.0000000000000000e+00 0.0000000000000000e+00  0.0000000000000000e+00 0.0000000000000000e+00 0.0000000000000000e+00  1.0000001326879855e+00 0.0000000000000000e+00 0.0000000000000000e+00  9.9932474627182233e-01 0.0000000000000000e+00 0.0000000000000000e+00  9.9878719894498491e-01 0.0000000000000000e+00 0.0000000000000000e+00  1.0007979067401567e+00 0.0000000000000000e+00 0.0000000000000000e+00  1.0006170033658521e+00 0.0000000000000000e+00 0.0000000000000000e+00  1.0015444844938983e+00 0.0000000000000000e+00 0.0000000000000000e+00  1.0018252322446437e+00 0.0000000000000000e+00 0.0000000000000000e+00  1.0020850171478666e+00 0.0000000000000000e+00 0.0000000000000000e+00  1.0028789232047044e+00 0.0000000000000000e+00 0.0000000000000000e+00  1.0040769780150558e+00 0.0000000000000000e+00 0.0000000000000000e+00  1.0052320914307280e+00 0.0000000000000000e+00 0.0000000000000000e+00  1.0067398741282370e+00 0.0000000000000000e+00 0.0000000000000000e+00  1.0090671724315157e+00 0.0000000000000000e+00 0.0000000000000000e+00  1.0115500869612744e+00 0.0000000000000000e+00 0.0000000000000000e+00  1.0156785335491370e+00 0.0000000000000000e+00 0.0000000000000000e+00  1.0177550571150937e+00 0.0000000000000000e+00 0.0000000000000000e+00  1.0227408542426588e+00 0.0000000000000000e+00 0.0000000000000000e+00  1.0300261973103588e+00 0.0000000000000000e+00 0.0000000000000000e+00  1.0362087180174830e+00 0.0000000000000000e+00 0.0000000000000000e+00  1.0545779387199594e+00 0.0000000000000000e+00 0.0000000000000000e+00  1.0647038266565005e+00 0.0000000000000000e+00 0.0000000000000000e+00  1.0746788239147378e+00 0.0000000000000000e+00 0.0000000000000000e+00  1.0855759242281751e+00 0.0000000000000000e+00 0.0000000000000000e+00  1.0953015589104529e+00 0.0000000000000000e+00 0.0000000000000000e+00  1.1046354240980405e+00 0.0000000000000000e+00 0.0000000000000000e+00  1.1136085368039068e+00 0.0000000000000000e+00 0.0000000000000000e+00  1.1198524447937974e+00 0.0000000000000000e+00 0.0000000000000000e+00  1.1248641673838380e+00 0.0000000000000000e+00 0.0000000000000000e+00  1.1275831637254445e+00 0.0000000000000000e+00 0.0000000000000000e+00  1.1284359066993073e+00 0.0000000000000000e+00 0.0000000000000000e+00  1.1261166222641592e+00 0.0000000000000000e+00 0.0000000000000000e+00  1.1228260645553683e+00 0.0000000000000000e+00 0.0000000000000000e+00  1.1174681167199096e+00 0.0000000000000000e+00 0.0000000000000000e+00  1.1110513654858742e+00 0.0000000000000000e+00 0.0000000000000000e+00  1.1046785233761724e+00 0.0000000000000000e+00 0.0000000000000000e+00  1.0986294806522419e+00 0.0000000000000000e+00 0.0000000000000000e+00  1.0940406533514118e+00 0.0000000000000000e+00 0.0000000000000000e+00  1.0909692819309660e+00 0.0000000000000000e+00 0.0000000000000000e+00  1.0899077376397261e+00 0.0000000000000000e+00 0.0000000000000000e+00  1.0919435966619637e+00 0.0000000000000000e+00 0.0000000000000000e+00  1.0958712984882926e+00 0.0000000000000000e+00 0.0000000000000000e+00  1.0991417347406793e+00 0.0000000000000000e+00 0.0000000000000000e+00  1.1024720912271280e+00 0.0000000000000000e+00 0.0000000000000000e+00  1.1039721154279010e+00 0.0000000000000000e+00 0.0000000000000000e+00  1.1027510054205416e+00 0.0000000000000000e+00 0.0000000000000000e+00  1.0994070029653289e+00 0.0000000000000000e+00 0.0000000000000000e+00  1.0931443447602267e+00 0.0000000000000000e+00 0.0000000000000000e+00  1.0857543007584467e+00 0.0000000000000000e+00 0.0000000000000000e+00  1.0784936917708046e+00 0.0000000000000000e+00 0.0000000000000000e+00  1.0716678764396597e+00 0.0000000000000000e+00 0.0000000000000000e+00  1.0671444155096812e+00 0.0000000000000000e+00 0.0000000000000000e+00  1.0674301195694917e+00 0.0000000000000000e+00 0.0000000000000000e+00  1.0705274170969037e+00 0.0000000000000000e+00 0.0000000000000000e+00  1.0772221096943508e+00 0.0000000000000000e+00 0.0000000000000000e+00  1.0881777732041178e+00 0.0000000000000000e+00 0.0000000000000000e+00  1.0998179844372038e+00 0.0000000000000000e+00 0.0000000000000000e+00  1.1109831475063254e+00 0.0000000000000000e+00 0.0000000000000000e+00  1.1212569314251275e+00 0.0000000000000000e+00 0.0000000000000000e+00  1.1262970955533933e+00 0.0000000000000000e+00 0.0000000000000000e+00  1.1260269277992054e+00 0.0000000000000000e+00 0.0000000000000000e+00  1.1216220774214207e+00 0.0000000000000000e+00 0.0000000000000000e+00  1.1129780047524529e+00 0.0000000000000000e+00 0.0000000000000000e+00  1.1024903786721123e+00 0.0000000000000000e+00 0.0000000000000000e+00  1.0927750978941349e+00 0.0000000000000000e+00 0.0000000000000000e+00  1.0840166108545028e+00 0.0000000000000000e+00 0.0000000000000000e+00  1.0782641185164969e+00 0.0000000000000000e+00 0.0000000000000000e+00  1.0790004859875910e+00 0.0000000000000000e+00 0.0000000000000000e+00  1.0820909902180695e+00 0.0000000000000000e+00 0.0000000000000000e+00  1.0875422849243921e+00 0.0000000000000000e+00 0.0000000000000000e+00  1.0973283017801336e+00 0.0000000000000000e+00 0.0000000000000000e+00  1.1099061998775230e+00 0.0000000000000000e+00 0.0000000000000000e+00  1.1209970201683037e+00 0.0000000000000000e+00 0.0000000000000000e+00  1.1325818887106573e+00 0.0000000000000000e+00 0.0000000000000000e+00  1.1295517906346624e+00 0.0000000000000000e+00 0.0000000000000000e+00  1.1216240811308149e+00 0.0000000000000000e+00 0.0000000000000000e+00  1.1115722298789013e+00 0.0000000000000000e+00 0.0000000000000000e+00  1.0995737389224343e+00 0.0000000000000000e+00 0.0000000000000000e+00  1.0875711436195801e+00 0.0000000000000000e+00 0.0000000000000000e+00  1.0766785604010869e+00 0.0000000000000000e+00 0.0000000000000000e+00  1.0683522814231265e+00 0.0000000000000000e+00 0.0000000000000000e+00  1.0623072192390037e+00 0.0000000000000000e+00 0.0000000000000000e+00  1.0582812227782585e+00 0.0000000000000000e+00 0.0000000000000000e+00  1.0568001564999239e+00 0.0000000000000000e+00 0.0000000000000000e+00  1.0567299711627991e+00 0.0000000000000000e+00 0.0000000000000000e+00  1.0572580729665315e+00 0.0000000000000000e+00 0.0000000000000000e+00  1.0585096691224516e+00 0.0000000000000000e+00 0.0000000000000000e+00  1.0592848712577698e+00 0.0000000000000000e+00 0.0000000000000000e+00  1.0597817246332815e+00 0.0000000000000000e+00 0.0000000000000000e+00  1.0582415530278451e+00 0.0000000000000000e+00 0.0000000000000000e+00  1.0562147004652476e+00 0.0000000000000000e+00 0.0000000000000000e+00  1.0529822465268472e+00 0.0000000000000000e+00 0.0000000000000000e+00  1.0498618742504324e+00 0.0000000000000000e+00 0.0000000000000000e+00  1.0457633941908366e+00 0.0000000000000000e+00 0.0000000000000000e+00  1.0422092534409324e+00 0.0000000000000000e+00 0.0000000000000000e+00  1.0379875820453082e+00 0.0000000000000000e+00 0.0000000000000000e+00  1.0354780235720205e+00 3.1719927906827491e-03 0.0000000000000000e+00  1.0361227690673496e+00 6.2973015884662271e-03 0.0000000000000000e+00  1.0369452345349073e+00 9.6222520153737730e-03 0.0000000000000000e+00  1.0358533368447316e+00 1.3179764804784402e-02 0.0000000000000000e+00  1.0344306346346062e+00 1.6773597939160265e-02 0.0000000000000000e+00  1.0303787217322489e+00 2.0469900731657571e-02 0.0000000000000000e+00  1.0239149987943985e+00 2.3976643879130725e-02 0.0000000000000000e+00  1.0136589826318587e+00 2.7095499780550109e-02 0.0000000000000000e+00  9.9456128814450306e-01 2.9671302411765375e-02 0.0000000000000000e+00  9.6096193722109946e-01 3.2807761874124070e-02 0.0000000000000000e+00  9.1102641803294049e-01 3.7411689760604300e-02 0.0000000000000000e+00  8.6017282876978896e-01 4.2560679491612310e-02 0.0000000000000000e+00  8.4577746720022007e-01 3.9808763076877578e-02 0.0000000000000000e+00  8.8622801383383254e-01 2.8668643877161792e-02 0.0000000000000000e+00  9.5724765467294592e-01 1.6650091036441286e-02 0.0000000000000000e+00  1.0157109300469196e+00 9.1260872947508849e-03 0.0000000000000000e+00  1.0416004138071169e+00 5.1566086331338709e-03 0.0000000000000000e+00  1.0465580132536074e+00 3.2525394546095323e-03 0.0000000000000000e+00  1.0443276467306626e+00 1.8002581304025571e-03 0.0000000000000000e+00  1.0421545154020424e+00 6.9672412080819084e-04 0.0000000000000000e+00  1.0394912209531264e+00 1.2085913078401994e-04 0.0000000000000000e+00  1.0379031685907416e+00 -1.3767800280883459e-04 0.0000000000000000e+00  1.0362235693659037e+00 -1.9812265373523840e-04 0.0000000000000000e+00  1.0351492375577191e+00 0.0000000000000000e+00 0.0000000000000000e+00  1.0351617286456678e+00 0.0000000000000000e+00 0.0000000000000000e+00  1.0353163741231692e+00 0.0000000000000000e+00 0.0000000000000000e+00  1.0362337761391909e+00 0.0000000000000000e+00 0.0000000000000000e+00  1.0372329521924675e+00 0.0000000000000000e+00 0.0000000000000000e+00  1.0397206202648999e+00 0.0000000000000000e+00 0.0000000000000000e+00  1.0435216922792041e+00 0.0000000000000000e+00 0.0000000000000000e+00  1.0488010497405562e+00 0.0000000000000000e+00 0.0000000000000000e+00  1.0546610964149497e+00 0.0000000000000000e+00 0.0000000000000000e+00  1.0620969323445861e+00 0.0000000000000000e+00 0.0000000000000000e+00  1.0701846037522604e+00 0.0000000000000000e+00 0.0000000000000000e+00  1.0785486020966137e+00 0.0000000000000000e+00 0.0000000000000000e+00  1.0865743409351558e+00 0.0000000000000000e+00 0.0000000000000000e+00  1.0939303574734391e+00 0.0000000000000000e+00 0.0000000000000000e+00  1.0982437791909485e+00 0.0000000000000000e+00 0.0000000000000000e+00  1.1005911013992553e+00 0.0000000000000000e+00 0.0000000000000000e+00  1.0984682782813580e+00 0.0000000000000000e+00 0.0000000000000000e+00  1.0941589010447426e+00 0.0000000000000000e+00 0.0000000000000000e+00  1.0881247414715558e+00 0.0000000000000000e+00 0.0000000000000000e+00  1.0824594903134814e+00 0.0000000000000000e+00 0.0000000000000000e+00  1.0780819099451004e+00 0.0000000000000000e+00 0.0000000000000000e+00  1.0759400164822743e+00 0.0000000000000000e+00 0.0000000000000000e+00  1.0778053436842616e+00 0.0000000000000000e+00 0.0000000000000000e+00  1.0908357885668900e+00 0.0000000000000000e+00 0.0000000000000000e+00  1.1018247392768026e+00 0.0000000000000000e+00 0.0000000000000000e+00  1.1126342882697287e+00 0.0000000000000000e+00 0.0000000000000000e+00  1.1242304033565758e+00 0.0000000000000000e+00 0.0000000000000000e+00  1.1339703289958440e+00 0.0000000000000000e+00 0.0000000000000000e+00  1.1376969862732345e+00 0.0000000000000000e+00 0.0000000000000000e+00  1.1339075648163299e+00 0.0000000000000000e+00 0.0000000000000000e+00  1.1270086026407806e+00 0.0000000000000000e+00 0.0000000000000000e+00  1.1158482032923580e+00 0.0000000000000000e+00 0.0000000000000000e+00  1.1020395663856080e+00 0.0000000000000000e+00 0.0000000000000000e+00  1.0896121212885372e+00 0.0000000000000000e+00 0.0000000000000000e+00  1.0797189740098749e+00 0.0000000000000000e+00 0.0000000000000000e+00  1.0729428812566277e+00 0.0000000000000000e+00 0.0000000000000000e+00  1.0712253547195367e+00 0.0000000000000000e+00 0.0000000000000000e+00  1.0736583508794728e+00 0.0000000000000000e+00 0.0000000000000000e+00  1.0785796472810565e+00 0.0000000000000000e+00 0.0000000000000000e+00  1.0871059643969752e+00 0.0000000000000000e+00 0.0000000000000000e+00  1.0962600834351974e+00 0.0000000000000000e+00 0.0000000000000000e+00  1.1038827497814570e+00 0.0000000000000000e+00 0.0000000000000000e+00  1.1098808920258241e+00 0.0000000000000000e+00 0.0000000000000000e+00  1.1121776229179487e+00 0.0000000000000000e+00 0.0000000000000000e+00  1.1092393992517715e+00 0.0000000000000000e+00 0.0000000000000000e+00  1.1042131706896918e+00 0.0000000000000000e+00 0.0000000000000000e+00  1.0964162799997392e+00 0.0000000000000000e+00 0.0000000000000000e+00  1.0870525814717373e+00 0.0000000000000000e+00 0.0000000000000000e+00  1.0791046097570103e+00 0.0000000000000000e+00 0.0000000000000000e+00  1.0732911113996670e+00 0.0000000000000000e+00 0.0000000000000000e+00  1.0704700503363100e+00 0.0000000000000000e+00 0.0000000000000000e+00  1.0711081921299843e+00 0.0000000000000000e+00 0.0000000000000000e+00  1.0749097312510469e+00 0.0000000000000000e+00 0.0000000000000000e+00  1.0805295169179168e+00 0.0000000000000000e+00 0.0000000000000000e+00  1.0882890352130337e+00 0.0000000000000000e+00 0.0000000000000000e+00  1.0949434638380544e+00 0.0000000000000000e+00 0.0000000000000000e+00  1.1014398297553334e+00 0.0000000000000000e+00 0.0000000000000000e+00  1.1073425076144430e+00 0.0000000000000000e+00 0.0000000000000000e+00  1.1115474746598710e+00 0.0000000000000000e+00 0.0000000000000000e+00  1.1137128835632810e+00 0.0000000000000000e+00 0.0000000000000000e+00  1.1143882043301891e+00 0.0000000000000000e+00 0.0000000000000000e+00  1.1148974004829701e+00 0.0000000000000000e+00 0.0000000000000000e+00  1.1160537100827845e+00 0.0000000000000000e+00 0.0000000000000000e+00  1.1166074094117533e+00 0.0000000000000000e+00 0.0000000000000000e+00  1.1169984374038806e+00 0.0000000000000000e+00 0.0000000000000000e+00  1.1186174416121868e+00 0.0000000000000000e+00 0.0000000000000000e+00  1.1179176308521781e+00 0.0000000000000000e+00 0.0000000000000000e+00  1.1169061095707380e+00 0.0000000000000000e+00 0.0000000000000000e+00  1.1140149434598323e+00 0.0000000000000000e+00 0.0000000000000000e+00  1.1087409307796388e+00 0.0000000000000000e+00 0.0000000000000000e+00  1.1019296632339826e+00 0.0000000000000000e+00 0.0000000000000000e+00  1.0939800732839655e+00 0.0000000000000000e+00 0.0000000000000000e+00  1.0850271427100080e+00 0.0000000000000000e+00 0.0000000000000000e+00  1.0747007439952083e+00 0.0000000000000000e+00 0.0000000000000000e+00  1.0653376026716381e+00 0.0000000000000000e+00 0.0000000000000000e+00  1.0555262755182420e+00 0.0000000000000000e+00 0.0000000000000000e+00  1.0375367150176309e+00 0.0000000000000000e+00 0.0000000000000000e+00  1.0299888638672643e+00 0.0000000000000000e+00 0.0000000000000000e+00  1.0240574767725690e+00 0.0000000000000000e+00 0.0000000000000000e+00  1.0187411589307134e+00 0.0000000000000000e+00 0.0000000000000000e+00  1.0144771223680238e+00 0.0000000000000000e+00 0.0000000000000000e+00  1.0110933441167831e+00 0.0000000000000000e+00 0.0000000000000000e+00  1.0084954914864999e+00 0.0000000000000000e+00 0.0000000000000000e+00  1.0060308615109552e+00 0.0000000000000000e+00 0.0000000000000000e+00  1.0043215091289905e+00 0.0000000000000000e+00 0.0000000000000000e+00  1.0031069479452197e+00 0.0000000000000000e+00 0.0000000000000000e+00  1.0017665179542299e+00 0.0000000000000000e+00 0.0000000000000000e+00  1.0015021404087872e+00 0.0000000000000000e+00 0.0000000000000000e+00  1.0003684178643129e+00 0.0000000000000000e+00 0.0000000000000000e+00  1.0002812285642892e+00 0.0000000000000000e+00 0.0000000000000000e+00  9.9984072289591508e-01 0.0000000000000000e+00 0.0000000000000000e+00  1.0004934043643681e+00 0.0000000000000000e+00 0.0000000000000000e+00  1.0002479664792530e+00 0.0000000000000000e+00 0.0000000000000000e+00  9.9979349503292092e-01 0.0000000000000000e+00 0.0000000000000000e+00  1.0000001326879855e+00 0.0000000000000000e+00 0.0000000000000000e+00  1.0000001326879855e+00 0.0000000000000000e+00 0.0000000000000000e+00  1.0000001326879855e+00 0.0000000000000000e+00 0.0000000000000000e+00  1.0000001326879855e+00 0.0000000000000000e+00 0.0000000000000000e+00  1.0000001326879855e+00 0.0000000000000000e+00 0.0000000000000000e+00  1.0000001326879855e+00 0.0000000000000000e+00 0.0000000000000000e+00  1.0000001326879855e+00 0.0000000000000000e+00 0.0000000000000000e+00  1.0000001326879855e+00 0.0000000000000000e+00 0.0000000000000000e+00  1.0000001326879855e+00 0.0000000000000000e+00 0.0000000000000000e+00  1.0000001326879855e+00 0.0000000000000000e+00 0.0000000000000000e+00  1.0000001326879855e+00 0.0000000000000000e+00 0.0000000000000000e+00  1.0000001326879855e+00 0.0000000000000000e+00 0.0000000000000000e+00  1.0000001326879855e+00 0.0000000000000000e+00 0.0000000000000000e+00  1.0000001326879855e+00 0.0000000000000000e+00 0.0000000000000000e+00  1.0000001326879855e+00 0.0000000000000000e+00 0.0000000000000000e+00  1.0000001326879855e+00 0.0000000000000000e+00 0.0000000000000000e+00  1.0000001326879855e+00 0.0000000000000000e+00 0.0000000000000000e+00  1.0000001326879855e+00 0.0000000000000000e+00 0.0000000000000000e+00  1.0000001326879855e+00 0.0000000000000000e+00 0.0000000000000000e+00  1.0000001326879855e+00 0.0000000000000000e+00 0.0000000000000000e+00  1.0444318406326278e+00 -1.0819804950825405e-02 0.0000000000000000e+00  1.0408403163788322e+00 -2.1714937046175848e-02 0.0000000000000000e+00  1.0376154557170274e+00 -3.3097821595239586e-02 0.0000000000000000e+00  1.0305938477831067e+00 -4.4711919067258701e-02 0.0000000000000000e+00  1.0232655482275648e+00 -6.0289352927070917e-02 0.0000000000000000e+00  1.0277464482208662e+00 -6.4137494370473863e-02 0.0000000000000000e+00  1.0318103333567730e+00 -6.8099041201329147e-02 0.0000000000000000e+00  1.0369118615231703e+00 -7.1795191055815583e-02 0.0000000000000000e+00  1.0422774639006298e+00 -7.5386990744637464e-02 0.0000000000000000e+00  1.0482719176418391e+00 -7.8611726481347705e-02 0.0000000000000000e+00  1.0548506280136363e+00 -8.1533759036875320e-02 0.0000000000000000e+00  1.0618754736694962e+00 -8.3849599048184217e-02 0.0000000000000000e+00  1.0694113503006628e+00 -8.5688695539191853e-02 0.0000000000000000e+00  1.0770721693957146e+00 -8.6712400150854241e-02 0.0000000000000000e+00  1.0850596618211255e+00 -8.7174067108642464e-02 0.0000000000000000e+00  1.0930885232356558e+00 -8.6953479464455322e-02 0.0000000000000000e+00  1.1012038543541722e+00 -8.5771274718546633e-02 0.0000000000000000e+00  1.1089634962616575e+00 -8.3781414976571641e-02 0.0000000000000000e+00  1.1164537588974934e+00 -8.1227610915440937e-02 0.0000000000000000e+00  1.1235373673597571e+00 -7.8020783211213626e-02 0.0000000000000000e+00  1.1300261649814813e+00 -7.4251244582187764e-02 0.0000000000000000e+00  1.1359444607342011e+00 -7.0068347600625705e-02 0.0000000000000000e+00  1.1412620765136536e+00 -6.5644261659858968e-02 0.0000000000000000e+00  1.1459945194074037e+00 -6.0891463102694665e-02 0.0000000000000000e+00  1.1501633963392699e+00 -5.6272390383423458e-02 0.0000000000000000e+00  1.1538265591258230e+00 -5.1452103669128231e-02 0.0000000000000000e+00  1.1569727283929310e+00 -4.6686268340574918e-02 0.0000000000000000e+00  1.1598783093450500e+00 -4.2113572841134622e-02 0.0000000000000000e+00  1.1624283972553064e+00 -3.7667960628219178e-02 0.0000000000000000e+00  1.1647981330103472e+00 -3.3305969560033830e-02 0.0000000000000000e+00  1.1670156512538794e+00 -2.8941329000719083e-02 0.0000000000000000e+00  1.1691669012596559e+00 -2.4596319839576317e-02 0.0000000000000000e+00  1.1712361669457250e+00 -2.0071446044522698e-02 0.0000000000000000e+00  1.1732624486907155e+00 -1.5305079081901599e-02 0.0000000000000000e+00  1.1751627465395262e+00 -1.0243117343509090e-02 0.0000000000000000e+00  1.1768636137648276e+00 -4.7617733388117022