<?xml version="1.0"?>
<VTKFile type="UnstructuredGrid"  version="0.1"  >
<UnstructuredGrid>
<Piece  NumberOfPoints="10199" NumberOfCells="20110">
<Points>
<DataArray  type="Float64"  NumberOfComponents="3"  format="ascii">0 -5 0  8 -5 0  30 -5 0  40 -5 0  40 5 0  30 5 0  8 5 0  0 5 0  8 -2.5 0  15 -2.5 0  30 -2.5 0  30 2.5 0  15 2.5 0  8 2.5 0  10 0.5 0  10 -0.5 0  0 0 0  0.4210526315780956 -5 0  0.8421052631563433 -5 0  1.263157894734281 -5 0  1.684210526311999 -5 0  2.105263157889717 -5 0  2.526315789467435 -5 0  2.947368421045153 -5 0  3.368421052622872 -5 0  3.78947368420059 -5 0  4.210526315779479 -5 0  4.631578947359537 -5 0  5.052631578939595 -5 0  5.473684210519653 -5 0  5.89473684209971 -5 0  6.315789473679768 -5 0  6.736842105259826 -5 0  7.157894736839884 -5 0  7.578947368419942 -5 0  8.407407407405314 -5 0  8.814814814810628 -5 0  9.222222222215942 -5 0  9.629629629621256 -5 0  10.03703703702657 -5 0  10.44444444443188 -5 0  10.8518518518372 -5 0  11.25925925924251 -5 0  11.66666666664783 -5 0  12.07407407405314 -5 0  12.48148148145846 -5 0  12.88888888886377 -5 0  13.29629629626908 -5 0  13.7037037036744 -5 0  14.11111111107971 -5 0  14.51851851848502 -5 0  14.92592592589034 -5 0  15.33333333329565 -5 0  15.74074074070096 -5 0  16.14814814810754 -5 0  16.55555555551614 -5 0  16.96296296292474 -5 0  17.37037037033335 -5 0  17.77777777774195 -5 0  18.18518518515056 -5 0  18.59259259255916 -5 0  18.99999999996776 -5 0  19.40740740737636 -5 0  19.81481481478497 -5 0  20.22222222219357 -5 0  20.62962962960217 -5 0  21.03703703701077 -5 0  21.44444444441937 -5 0  21.85185185182797 -5 0  22.25925925923657 -5 0  22.66666666664518 -5 0  23.07407407405378 -5 0  23.48148148146238 -5 0  23.88888888887098 -5 0  24.29629629627958 -5 0  24.70370370368818 -5 0  25.11111111109678 -5 0  25.51851851850539 -5 0  25.92592592591399 -5 0  26.33333333332259 -5 0  26.74074074073119 -5 0  27.14814814813979 -5 0  27.55555555554839 -5 0  27.96296296295699 -5 0  28.3703703703656 -5 0  28.7777777777742 -5 0  29.1851851851828 -5 0  29.5925925925914 -5 0  30.41666666667852 -5 0  30.83333333335704 -5 0  31.25000000003556 -5 0  31.66666666671408 -5 0  32.08333333338936 -5 0  32.50000000005308 -5 0  32.9166666667168 -5 0  33.33333333338052 -5 0  33.75000000004424 -5 0  34.16666666670795 -5 0  34.58333333337167 -5 0  35.00000000003539 -5 0  35.41666666669911 -5 0  35.83333333336282 -5 0  36.25000000002654 -5 0  36.66666666669026 -5 0  37.08333333335398 -5 0  37.50000000001769 -5 0  37.91666666668141 -5 0  38.33333333334513 -5 0  38.75000000000885 -5 0  39.16666666667257 -5 0  39.58333333333628 -5 0  40 -4.583333333332821 0  40 -4.166666666665642 0  40 -3.74999999999855 0  40 -3.333333333333135 0  40 -2.916666666667806 0  40 -2.500000000002478 0  40 -2.083333333337148 0  40 -1.666666666671818 0  40 -1.250000000006488 0  40 -0.8333333333405228 0  40 -0.4166666666733416 0  40 -6.163070054299169e-12 0  40 0.4166666666610173 0  40 0.8333333333281976 0  40 1.249999999995378 0  40 1.666666666662558 0  40 2.083333333329739 0  40 2.499999999996919 0  40 2.916666666664099 0  40 3.33333333333128 0  40 3.74999999999846 0  40 4.166666666665641 0  40 4.583333333332821 0  39.58333333333628 5 0  39.16666666667256 5 0  38.75000000000885 5 0  38.33333333334513 5 0  37.91666666668141 5 0  37.50000000001769 5 0  37.08333333335398 5 0  36.66666666669025 5 0  36.25000000002654 5 0  35.83333333336282 5 0  35.41666666669911 5 0  35.00000000003539 5 0  34.58333333337167 5 0  34.16666666670795 5 0  33.75000000004424 5 0  33.33333333338052 5 0  32.9166666667168 5 0  32.50000000005308 5 0  32.08333333338936 5 0  31.66666666671408 5 0  31.25000000003556 5 0  30.83333333335704 5 0  30.41666666667852 5 0  29.59259259259259 5 0  29.18518518518519 5 0  28.77777777777778 5 0  28.37037037037037 5 0  27.96296296296296 5 0  27.55555555555556 5 0  27.14814814814815 5 0  26.74074074074074 5 0  26.33333333333333 5 0  25.92592592592593 5 0  25.51851851851852 5 0  25.11111111111111 5 0  24.7037037037037 5 0  24.2962962962963 5 0  23.88888888888889 5 0  23.48148148148148 5 0  23.07407407407408 5 0  22.66666666666667 5 0  22.25925925925926 5 0  21.85185185185185 5 0  21.44444444444445 5 0  21.03703703703704 5 0  20.62962962962963 5 0  20.22222222222222 5 0  19.81481481481482 5 0  19.40740740740741 5 0  19 5 0  18.5925925925926 5 0  18.18518518518519 5 0  17.77777777777778 5 0  17.37037037037037 5 0  16.96296296296296 5 0  16.55555555555556 5 0  16.14814814814815 5 0  15.74074074074074 5 0  15.33333333333333 5 0  14.92592592592593 5 0  14.51851851851852 5 0  14.11111111111111 5 0  13.70370370370371 5 0  13.2962962962963 5 0  12.88888888888889 5 0  12.48148148148148 5 0  12.07407407407408 5 0  11.66666666666667 5 0  11.25925925925926 5 0  10.85185185185185 5 0  10.44444444444445 5 0  10.03703703703704 5 0  9.629629629629633 5 0  9.222222222222221 5 0  8.814814814814817 5 0  8.407407407407408 5 0  7.5789473684193 5 0  7.157894736838599 5 0  6.73684210526082 5 0  6.315789473684795 5 0  5.894736842108769 5 0  5.473684210532742 5 0  5.052631578956715 5 0  4.631578947380689 5 0  4.210526315804662 5 0  3.789473684226299 5 0  3.368421052645599 5 0  2.947368421064898 5 0  2.526315789484198 5 0  2.105263157903499 5 0  1.6842105263228 5 0  1.2631578947421 5 0  0.8421052631613994 5 0  0.4210526315806993 5 0  0 4.545454545454545 0  0 4.09090909090909 0  0 3.636363636363634 0  0 3.18181818181818 0  0 2.727272727272726 0  0 2.272727272727271 0  0 1.818181818181817 0  0 1.363636363636363 0  0 0.9090909090909092 0  0 0.454545454545455 0  0 -0.4545454545450807 0  0 -0.9090909090895867 0  0 -1.363636363633713 0  0 -1.818181818177841 0  0 -2.272727272723127 0  0 -2.727272727269273 0  0 -3.181818181815419 0  0 -3.636363636361564 0  0 -4.090909090907709 0  0 -4.545454545453855 0  8 -4.499999999999999 0  8 -3.999999999999999 0  8 -3.499999999999999 0  8 -3 0  8.137254901963859 -2.5 0  8.274509803926303 -2.5 0  8.411764705886863 -2.5 0  8.549019607849138 -2.5 0  8.686274509809513 -2.5 0  8.82352941176989 -2.5 0  8.960784313730265 -2.5 0  9.098039215690642 -2.5 0  9.235294117651017 -2.5 0  9.372549019611395 -2.5 0  9.50980392157177 -2.5 0  9.647058823532147 -2.5 0  9.784313725492522 -2.5 0  9.921568627452897 -2.5 0  10.05882352941327 -2.5 0  10.19607843137365 -2.5 0  10.33333333333402 -2.5 0  10.4705882352944 -2.5 0  10.60784313725478 -2.5 0  10.74509803921515 -2.5 0  10.88235294117553 -2.5 0  11.0196078431359 -2.5 0  11.15686274509628 -2.5 0  11.29411764705665 -2.5 0  11.43137254901703 -2.5 0  11.56862745097915 -2.5 0  11.70588235294301 -2.5 0  11.84313725490686 -2.5 0  11.98039215687072 -2.5 0  12.11764705883209 -2.5 0  12.25490196079247 -2.5 0  12.39215686275285 -2.5 0  12.52941176471322 -2.5 0  12.6666666666736 -2.5 0  12.80392156863397 -2.5 0  12.94117647059435 -2.5 0  13.07843137255473 -2.5 0  13.2156862745151 -2.5 0  13.35294117647548 -2.5 0  13.49019607843586 -2.5 0  13.62745098039623 -2.5 0  13.76470588235661 -2.5 0  13.90196078431699 -2.5 0  14.03921568627736 -2.5 0  14.17647058823774 -2.5 0  14.31372549019812 -2.5 0  14.45098039215849 -2.5 0  14.58823529411887 -2.5 0  14.72549019607925 -2.5 0  14.86274509803962 -2.5 0  15.20270270270254 -2.5 0  15.40540540540509 -2.5 0  15.60810810810763 -2.5 0  15.81081081081017 -2.5 0  16.01351351351227 -2.5 0  16.21621621621265 -2.5 0  16.41891891891279 -2.5 0  16.62162162161294 -2.5 0  16.82432432431308 -2.5 0  17.02702702701322 -2.5 0  17.22972972971337 -2.5 0  17.43243243241351 -2.5 0  17.63513513511365 -2.5 0  17.83783783781379 -2.5 0  18.04054054051394 -2.5 0  18.24324324321408 -2.5 0  18.44594594591422 -2.5 0  18.64864864861436 -2.5 0  18.85135135131451 -2.5 0  19.05405405401465 -2.5 0  19.25675675671479 -2.5 0  19.45945945941494 -2.5 0  19.66216216211508 -2.5 0  19.86486486481522 -2.5 0  20.06756756751536 -2.5 0  20.27027027021551 -2.5 0  20.47297297291565 -2.5 0  20.6756756756158 -2.5 0  20.87837837831594 -2.5 0  21.08108108101608 -2.5 0  21.28378378371622 -2.5 0  21.48648648641637 -2.5 0  21.68918918911651 -2.5 0  21.89189189181666 -2.5 0  22.0945945945168 -2.5 0  22.29729729721694 -2.5 0  22.49999999991778 -2.5 0  22.70270270262203 -2.5 0  22.90540540532697 -2.5 0  23.10810810803191 -2.5 0  23.31081081073686 -2.5 0  23.5135135134418 -2.5 0  23.71621621614674 -2.5 0  23.91891891885169 -2.5 0  24.12162162155663 -2.5 0  24.32432432426158 -2.5 0  24.52702702696652 -2.5 0  24.72972972967146 -2.5 0  24.93243243237641 -2.5 0  25.13513513508135 -2.5 0  25.3378378377863 -2.5 0  25.54054054049124 -2.5 0  25.74324324319618 -2.5 0  25.94594594590112 -2.5 0  26.14864864860607 -2.5 0  26.35135135131101 -2.5 0  26.55405405401596 -2.5 0  26.7567567567209 -2.5 0  26.95945945942584 -2.5 0  27.16216216213079 -2.5 0  27.36486486483573 -2.5 0  27.56756756754068 -2.5 0  27.77027027024562 -2.5 0  27.97297297295056 -2.5 0  28.1756756756555 -2.5 0  28.37837837836045 -2.5 0  28.5810810810654 -2.5 0  28.78378378377034 -2.5 0  28.98648648647528 -2.5 0  29.18918918918023 -2.5 0  29.39189189188517 -2.5 0  29.59459459459011 -2.5 0  29.79729729729506 -2.5 0  30 -3.000000000000001 0  30 -3.500000000000001 0  30 -4.000000000000001 0  30 -4.5 0  8 4.499999999999999 0  8 3.999999999999999 0  8 3.499999999999999 0  8 3 0  8.137254901963859 2.5 0  8.274509803926303 2.5 0  8.411764705886863 2.5 0  8.549019607849138 2.5 0  8.686274509809513 2.5 0  8.82352941176989 2.5 0  8.960784313730265 2.5 0  9.098039215690642 2.5 0  9.235294117651017 2.5 0  9.372549019611395 2.5 0  9.50980392157177 2.5 0  9.647058823532147 2.5 0  9.784313725492522 2.5 0  9.921568627452897 2.5 0  10.05882352941327 2.5 0  10.19607843137365 2.5 0  10.33333333333402 2.5 0  10.4705882352944 2.5 0  10.60784313725478 2.5 0  10.74509803921515 2.5 0  10.88235294117553 2.5 0  11.0196078431359 2.5 0  11.15686274509628 2.5 0  11.29411764705665 2.5 0  11.43137254901703 2.5 0  11.56862745097915 2.5 0  11.70588235294301 2.5 0  11.84313725490686 2.5 0  11.98039215687072 2.5 0  12.11764705883209 2.5 0  12.25490196079247 2.5 0  1
[...]
<PointData  Vectors="f_17"> 
<DataArray  type="Float64"  Name="f_17"  NumberOfComponents="3" format="ascii">1.0000001320695293e+00 0.0000000000000000e+00 0.0000000000000000e+00  1.0426877125561940e+00 0.0000000000000000e+00 0.0000000000000000e+00  1.0567341444529736e+00 0.0000000000000000e+00 0.0000000000000000e+00  1.0832829537911526e+00 0.0000000000000000e+00 0.0000000000000000e+00  1.0819872277364144e+00 0.0000000000000000e+00 0.0000000000000000e+00  1.0574470679658781e+00 0.0000000000000000e+00 0.0000000000000000e+00  1.0382175327743559e+00 0.0000000000000000e+00 0.0000000000000000e+00  1.0000001320695293e+00 0.0000000000000000e+00 0.0000000000000000e+00  1.0253448001099901e+00 -5.2194418631735844e-02 0.0000000000000000e+00  1.1370120759238036e+00 -8.3330531505733593e-03 0.0000000000000000e+00  1.0861212179493023e+00 -8.9875721116216403e-02 0.0000000000000000e+00  1.0479133380579284e+00 -8.0347241604436792e-02 0.0000000000000000e+00  9.9585194868564597e-01 -5.4545755506771265e-02 0.0000000000000000e+00  1.0174478910396898e+00 4.9450951485761369e-02 0.0000000000000000e+00  0.0000000000000000e+00 0.0000000000000000e+00 0.0000000000000000e+00  0.0000000000000000e+00 0.0000000000000000e+00 0.0000000000000000e+00  1.0000001320695293e+00 0.0000000000000000e+00 0.0000000000000000e+00  9.9929927233577054e-01 0.0000000000000000e+00 0.0000000000000000e+00  9.9877524633159553e-01 0.0000000000000000e+00 0.0000000000000000e+00  1.0008781175078807e+00 0.0000000000000000e+00 0.0000000000000000e+00  1.0007794280317033e+00 0.0000000000000000e+00 0.0000000000000000e+00  1.0018725648998579e+00 0.0000000000000000e+00 0.0000000000000000e+00  1.0023367947321145e+00 0.0000000000000000e+00 0.0000000000000000e+00  1.0027927861698192e+00 0.0000000000000000e+00 0.0000000000000000e+00  1.0037706107618092e+00 0.0000000000000000e+00 0.0000000000000000e+00  1.0051341442903570e+00 0.0000000000000000e+00 0.0000000000000000e+00  1.0063629581537157e+00 0.0000000000000000e+00 0.0000000000000000e+00  1.0079179675470036e+00 0.0000000000000000e+00 0.0000000000000000e+00  1.0101919489891351e+00 0.0000000000000000e+00 0.0000000000000000e+00  1.0125654536866500e+00 0.0000000000000000e+00 0.0000000000000000e+00  1.0165022968791311e+00 0.0000000000000000e+00 0.0000000000000000e+00  1.0182241739106608e+00 0.0000000000000000e+00 0.0000000000000000e+00  1.0227680916872723e+00 0.0000000000000000e+00 0.0000000000000000e+00  1.0294874355798205e+00 0.0000000000000000e+00 0.0000000000000000e+00  1.0348585302936562e+00 0.0000000000000000e+00 0.0000000000000000e+00  1.0504586675094287e+00 0.0000000000000000e+00 0.0000000000000000e+00  1.0584942582760066e+00 0.0000000000000000e+00 0.0000000000000000e+00  1.0657052293234008e+00 0.0000000000000000e+00 0.0000000000000000e+00  1.0730182142908333e+00 0.0000000000000000e+00 0.0000000000000000e+00  1.0784297043174804e+00 0.0000000000000000e+00 0.0000000000000000e+00  1.0826513530177304e+00 0.0000000000000000e+00 0.0000000000000000e+00  1.0860196948442533e+00 0.0000000000000000e+00 0.0000000000000000e+00  1.0865448401107189e+00 0.0000000000000000e+00 0.0000000000000000e+00  1.0861836126041629e+00 0.0000000000000000e+00 0.0000000000000000e+00  1.0846044520531273e+00 0.0000000000000000e+00 0.0000000000000000e+00  1.0829756487746420e+00 0.0000000000000000e+00 0.0000000000000000e+00  1.0804604956623893e+00 0.0000000000000000e+00 0.0000000000000000e+00  1.0794296032224870e+00 0.0000000000000000e+00 0.0000000000000000e+00  1.0787849034539476e+00 0.0000000000000000e+00 0.0000000000000000e+00  1.0781808610857202e+00 0.0000000000000000e+00 0.0000000000000000e+00  1.0776921824505397e+00 0.0000000000000000e+00 0.0000000000000000e+00  1.0762305206715144e+00 0.0000000000000000e+00 0.0000000000000000e+00  1.0734521777047779e+00 0.0000000000000000e+00 0.0000000000000000e+00  1.0687238184310108e+00 0.0000000000000000e+00 0.0000000000000000e+00  1.0622932736750401e+00 0.0000000000000000e+00 0.0000000000000000e+00  1.0560673069327819e+00 0.0000000000000000e+00 0.0000000000000000e+00  1.0502658859357710e+00 0.0000000000000000e+00 0.0000000000000000e+00  1.0441097655440457e+00 0.0000000000000000e+00 0.0000000000000000e+00  1.0406614652729973e+00 0.0000000000000000e+00 0.0000000000000000e+00  1.0393722409292079e+00 0.0000000000000000e+00 0.0000000000000000e+00  1.0405584824699470e+00 0.0000000000000000e+00 0.0000000000000000e+00  1.0444371910391139e+00 0.0000000000000000e+00 0.0000000000000000e+00  1.0493764475645739e+00 0.0000000000000000e+00 0.0000000000000000e+00  1.0547121238375063e+00 0.0000000000000000e+00 0.0000000000000000e+00  1.0597142328620985e+00 0.0000000000000000e+00 0.0000000000000000e+00  1.0619766475937888e+00 0.0000000000000000e+00 0.0000000000000000e+00  1.0617890747795122e+00 0.0000000000000000e+00 0.0000000000000000e+00  1.0606249634775446e+00 0.0000000000000000e+00 0.0000000000000000e+00  1.0566270912048270e+00 0.0000000000000000e+00 0.0000000000000000e+00  1.0516030241635033e+00 0.0000000000000000e+00 0.0000000000000000e+00  1.0477834946343749e+00 0.0000000000000000e+00 0.0000000000000000e+00  1.0443483695292832e+00 0.0000000000000000e+00 0.0000000000000000e+00  1.0426714721705483e+00 0.0000000000000000e+00 0.0000000000000000e+00  1.0447445513213478e+00 0.0000000000000000e+00 0.0000000000000000e+00  1.0477724926416438e+00 0.0000000000000000e+00 0.0000000000000000e+00  1.0520442138493251e+00 0.0000000000000000e+00 0.0000000000000000e+00  1.0575268784771104e+00 0.0000000000000000e+00 0.0000000000000000e+00  1.0615845184980250e+00 0.0000000000000000e+00 0.0000000000000000e+00  1.0639699867347050e+00 0.0000000000000000e+00 0.0000000000000000e+00  1.0648594330012295e+00 0.0000000000000000e+00 0.0000000000000000e+00  1.0627439376548020e+00 0.0000000000000000e+00 0.0000000000000000e+00  1.0587471500924468e+00 0.0000000000000000e+00 0.0000000000000000e+00  1.0565262932876038e+00 0.0000000000000000e+00 0.0000000000000000e+00  1.0526972862423660e+00 0.0000000000000000e+00 0.0000000000000000e+00  1.0484055569021224e+00 0.0000000000000000e+00 0.0000000000000000e+00  1.0471251225060376e+00 0.0000000000000000e+00 0.0000000000000000e+00  1.0493402542757309e+00 0.0000000000000000e+00 0.0000000000000000e+00  1.0524104483341827e+00 0.0000000000000000e+00 0.0000000000000000e+00  1.0609757812386609e+00 0.0000000000000000e+00 0.0000000000000000e+00  1.0634488483724267e+00 0.0000000000000000e+00 0.0000000000000000e+00  1.0642613036842530e+00 0.0000000000000000e+00 0.0000000000000000e+00  1.0641056469549588e+00 0.0000000000000000e+00 0.0000000000000000e+00  1.0619300362097686e+00 0.0000000000000000e+00 0.0000000000000000e+00  1.0583606788952056e+00 0.0000000000000000e+00 0.0000000000000000e+00  1.0544917198036237e+00 0.0000000000000000e+00 0.0000000000000000e+00  1.0519394433343898e+00 0.0000000000000000e+00 0.0000000000000000e+00  1.0509263461352056e+00 0.0000000000000000e+00 0.0000000000000000e+00  1.0515355619782307e+00 0.0000000000000000e+00 0.0000000000000000e+00  1.0544796174981654e+00 0.0000000000000000e+00 0.0000000000000000e+00  1.0585647872703174e+00 0.0000000000000000e+00 0.0000000000000000e+00  1.0626661770420474e+00 0.0000000000000000e+00 0.0000000000000000e+00  1.0667179112049636e+00 0.0000000000000000e+00 0.0000000000000000e+00  1.0692869759974357e+00 0.0000000000000000e+00 0.0000000000000000e+00  1.0707017929288090e+00 0.0000000000000000e+00 0.0000000000000000e+00  1.0695484747575843e+00 0.0000000000000000e+00 0.0000000000000000e+00  1.0679838167283626e+00 0.0000000000000000e+00 0.0000000000000000e+00  1.0659929626211830e+00 0.0000000000000000e+00 0.0000000000000000e+00  1.0655081561388164e+00 0.0000000000000000e+00 0.0000000000000000e+00  1.0661706621209592e+00 0.0000000000000000e+00 0.0000000000000000e+00  1.0699607978703132e+00 0.0000000000000000e+00 0.0000000000000000e+00  1.0752782740070372e+00 0.0000000000000000e+00 0.0000000000000000e+00  1.0834964392199606e+00 -8.6372039632122942e-03 0.0000000000000000e+00  1.0830956270332108e+00 -1.8876112737610619e-02 0.0000000000000000e+00  1.0815771341462250e+00 -3.2283385613519233e-02 0.0000000000000000e+00  1.0757455864410135e+00 -5.0890999451850633e-02 0.0000000000000000e+00  1.0669187599390133e+00 -8.0558446720731577e-02 0.0000000000000000e+00  1.0540775275641978e+00 -1.2343916820741543e-01 0.0000000000000000e+00  1.0281757646562533e+00 -1.8453964715945945e-01 0.0000000000000000e+00  9.7375363486846744e-01 -2.4129759640408371e-01 0.0000000000000000e+00  8.9111397568003037e-01 -2.8206148125871161e-01 0.0000000000000000e+00  8.0598549134645026e-01 -2.9804219784650382e-01 0.0000000000000000e+00  7.4990543431823908e-01 -2.9535340436216567e-01 0.0000000000000000e+00  7.4163943137606925e-01 -2.8391288430042055e-01 0.0000000000000000e+00  7.8009884420883713e-01 -2.7186285459958631e-01 0.0000000000000000e+00  8.5822357341011057e-01 -2.5527523296933735e-01 0.0000000000000000e+00  9.5415246070978266e-01 -2.2519073490883856e-01 0.0000000000000000e+00  1.0382299919071425e+00 -1.7334999407121418e-01 0.0000000000000000e+00  1.0864879049018052e+00 -1.2046383114523702e-01 0.0000000000000000e+00  1.1031761170717651e+00 -7.1698803406199038e-02 0.0000000000000000e+00  1.1000140964034320e+00 -4.0304339749629776e-02 0.0000000000000000e+00  1.0932330530257361e+00 -2.0334788594654072e-02 0.0000000000000000e+00  1.0879195061216880e+00 -9.8538060970361670e-03 0.0000000000000000e+00  1.0853657064858757e+00 -4.6028459854853378e-03 0.0000000000000000e+00  1.0831673646619557e+00 -1.8444525736159094e-03 0.0000000000000000e+00  1.0829670577355939e+00 0.0000000000000000e+00 0.0000000000000000e+00  1.0827332937678629e+00 0.0000000000000000e+00 0.0000000000000000e+00  1.0806426821520869e+00 0.0000000000000000e+00 0.0000000000000000e+00  1.0769634216420605e+00 0.0000000000000000e+00 0.0000000000000000e+00  1.0713323327032147e+00 0.0000000000000000e+00 0.0000000000000000e+00  1.0658521457255847e+00 0.0000000000000000e+00 0.0000000000000000e+00  1.0611452292373205e+00 0.0000000000000000e+00 0.0000000000000000e+00  1.0581607314600054e+00 0.0000000000000000e+00 0.0000000000000000e+00  1.0566168386133821e+00 0.0000000000000000e+00 0.0000000000000000e+00  1.0574214989152124e+00 0.0000000000000000e+00 0.0000000000000000e+00  1.0597738169140369e+00 0.0000000000000000e+00 0.0000000000000000e+00  1.0626933593184809e+00 0.0000000000000000e+00 0.0000000000000000e+00  1.0654288165894081e+00 0.0000000000000000e+00 0.0000000000000000e+00  1.0676724940775790e+00 0.0000000000000000e+00 0.0000000000000000e+00  1.0673620036688531e+00 0.0000000000000000e+00 0.0000000000000000e+00  1.0661847819852575e+00 0.0000000000000000e+00 0.0000000000000000e+00  1.0621288804294824e+00 0.0000000000000000e+00 0.0000000000000000e+00  1.0578261184111586e+00 0.0000000000000000e+00 0.0000000000000000e+00  1.0535596248621595e+00 0.0000000000000000e+00 0.0000000000000000e+00  1.0509463500042133e+00 0.0000000000000000e+00 0.0000000000000000e+00  1.0499308318335301e+00 0.0000000000000000e+00 0.0000000000000000e+00  1.0506195134500120e+00 0.0000000000000000e+00 0.0000000000000000e+00  1.0535695353802477e+00 0.0000000000000000e+00 0.0000000000000000e+00  1.0604927100217811e+00 0.0000000000000000e+00 0.0000000000000000e+00  1.0634518863883935e+00 0.0000000000000000e+00 0.0000000000000000e+00  1.0635672647860626e+00 0.0000000000000000e+00 0.0000000000000000e+00  1.0631623561214547e+00 0.0000000000000000e+00 0.0000000000000000e+00  1.0617034591641861e+00 0.0000000000000000e+00 0.0000000000000000e+00  1.0578684651589547e+00 0.0000000000000000e+00 0.0000000000000000e+00  1.0517777029040170e+00 0.0000000000000000e+00 0.0000000000000000e+00  1.0487502052021682e+00 0.0000000000000000e+00 0.0000000000000000e+00  1.0470693389931796e+00 0.0000000000000000e+00 0.0000000000000000e+00  1.0464972721702164e+00 0.0000000000000000e+00 0.0000000000000000e+00  1.0485345087157911e+00 0.0000000000000000e+00 0.0000000000000000e+00  1.0521491324330097e+00 0.0000000000000000e+00 0.0000000000000000e+00  1.0557967354630218e+00 0.0000000000000000e+00 0.0000000000000000e+00  1.0598978679547295e+00 0.0000000000000000e+00 0.0000000000000000e+00  1.0625099066458150e+00 0.0000000000000000e+00 0.0000000000000000e+00  1.0622229800425491e+00 0.0000000000000000e+00 0.0000000000000000e+00  1.0607404405674856e+00 0.0000000000000000e+00 0.0000000000000000e+00  1.0570952004229053e+00 0.0000000000000000e+00 0.0000000000000000e+00  1.0512321646335177e+00 0.0000000000000000e+00 0.0000000000000000e+00  1.0462308286429878e+00 0.0000000000000000e+00 0.0000000000000000e+00  1.0419949683655323e+00 0.0000000000000000e+00 0.0000000000000000e+00  1.0385121753164517e+00 0.0000000000000000e+00 0.0000000000000000e+00  1.0389590541147622e+00 0.0000000000000000e+00 0.0000000000000000e+00  1.0416136935067180e+00 0.0000000000000000e+00 0.0000000000000000e+00  1.0454851277196049e+00 0.0000000000000000e+00 0.0000000000000000e+00  1.0508439985281470e+00 0.0000000000000000e+00 0.0000000000000000e+00  1.0563649791781720e+00 0.0000000000000000e+00 0.0000000000000000e+00  1.0604871206564703e+00 0.0000000000000000e+00 0.0000000000000000e+00  1.0632371468264781e+00 0.0000000000000000e+00 0.0000000000000000e+00  1.0637413837267466e+00 0.0000000000000000e+00 0.0000000000000000e+00  1.0619529131870977e+00 0.0000000000000000e+00 0.0000000000000000e+00  1.0594733747535414e+00 0.0000000000000000e+00 0.0000000000000000e+00  1.0555019388986060e+00 0.0000000000000000e+00 0.0000000000000000e+00  1.0525857191010215e+00 0.0000000000000000e+00 0.0000000000000000e+00  1.0521490051368445e+00 0.0000000000000000e+00 0.0000000000000000e+00  1.0537638100624431e+00 0.0000000000000000e+00 0.0000000000000000e+00  1.0571665094893767e+00 0.0000000000000000e+00 0.0000000000000000e+00  1.0622203382929547e+00 0.0000000000000000e+00 0.0000000000000000e+00  1.0690106301446689e+00 0.0000000000000000e+00 0.0000000000000000e+00  1.0771622170103059e+00 0.0000000000000000e+00 0.0000000000000000e+00  1.0843361138217675e+00 0.0000000000000000e+00 0.0000000000000000e+00  1.0901964298237723e+00 0.0000000000000000e+00 0.0000000000000000e+00  1.0958970508156636e+00 0.0000000000000000e+00 0.0000000000000000e+00  1.0978667054840479e+00 0.0000000000000000e+00 0.0000000000000000e+00  1.0985724344079346e+00 0.0000000000000000e+00 0.0000000000000000e+00  1.0967214427377332e+00 0.0000000000000000e+00 0.0000000000000000e+00  1.0923182883843656e+00 0.0000000000000000e+00 0.0000000000000000e+00  1.0863529774984799e+00 0.0000000000000000e+00 0.0000000000000000e+00  1.0793930045873779e+00 0.0000000000000000e+00 0.0000000000000000e+00  1.0716113948350254e+00 0.0000000000000000e+00 0.0000000000000000e+00  1.0626264889501431e+00 0.0000000000000000e+00 0.0000000000000000e+00  1.0546038678786864e+00 0.0000000000000000e+00 0.0000000000000000e+00  1.0461485680126612e+00 0.0000000000000000e+00 0.0000000000000000e+00  1.0306578810188138e+00 0.0000000000000000e+00 0.0000000000000000e+00  1.0241630534527741e+00 0.0000000000000000e+00 0.0000000000000000e+00  1.0190629322358151e+00 0.0000000000000000e+00 0.0000000000000000e+00  1.0145142112834968e+00 0.0000000000000000e+00 0.0000000000000000e+00  1.0108075625243635e+00 0.0000000000000000e+00 0.0000000000000000e+00  1.0079034580854858e+00 0.0000000000000000e+00 0.0000000000000000e+00  1.0057341786710758e+00 0.0000000000000000e+00 0.0000000000000000e+00  1.0036437445628386e+00 0.0000000000000000e+00 0.0000000000000000e+00  1.0022818634170678e+00 0.0000000000000000e+00 0.0000000000000000e+00  1.0014015242415242e+00 0.0000000000000000e+00 0.0000000000000000e+00  1.0004087229361438e+00 0.0000000000000000e+00 0.0000000000000000e+00  1.0004593761779534e+00 0.0000000000000000e+00 0.0000000000000000e+00  9.9962408782681356e-01 0.0000000000000000e+00 0.0000000000000000e+00  9.9980252553177762e-01 0.0000000000000000e+00 0.0000000000000000e+00  9.9956929728793709e-01 0.0000000000000000e+00 0.0000000000000000e+00  1.0003807595117833e+00 0.0000000000000000e+00 0.0000000000000000e+00  1.0002114642600506e+00 0.0000000000000000e+00 0.0000000000000000e+00  9.9979307699383313e-01 0.0000000000000000e+00 0.0000000000000000e+00  1.0000001320695293e+00 0.0000000000000000e+00 0.0000000000000000e+00  1.0000001320695293e+00 0.0000000000000000e+00 0.0000000000000000e+00  1.0000001320695293e+00 0.0000000000000000e+00 0.0000000000000000e+00  1.0000001320695293e+00 0.0000000000000000e+00 0.0000000000000000e+00  1.0000001320695293e+00 0.0000000000000000e+00 0.0000000000000000e+00  1.0000001320695293e+00 0.0000000000000000e+00 0.0000000000000000e+00  1.0000001320695293e+00 0.0000000000000000e+00 0.0000000000000000e+00  1.0000001320695293e+00 0.0000000000000000e+00 0.0000000000000000e+00  1.0000001320695293e+00 0.0000000000000000e+00 0.0000000000000000e+00  1.0000001320695293e+00 0.0000000000000000e+00 0.0000000000000000e+00  1.0000001320695293e+00 0.0000000000000000e+00 0.0000000000000000e+00  1.0000001320695293e+00 0.0000000000000000e+00 0.0000000000000000e+00  1.0000001320695293e+00 0.0000000000000000e+00 0.0000000000000000e+00  1.0000001320695293e+00 0.0000000000000000e+00 0.0000000000000000e+00  1.0000001320695293e+00 0.0000000000000000e+00 0.0000000000000000e+00  1.0000001320695293e+00 0.0000000000000000e+00 0.0000000000000000e+00  1.0000001320695293e+00 0.0000000000000000e+00 0.0000000000000000e+00  1.0000001320695293e+00 0.0000000000000000e+00 0.0000000000000000e+00  1.0000001320695293e+00 0.0000000000000000e+00 0.0000000000000000e+00  1.0000001320695293e+00 0.0000000000000000e+00 0.0000000000000000e+00  1.0421985069380295e+00 -9.1893341715321500e-03 0.0000000000000000e+00  1.0395800647772071e+00 -1.8655405841567992e-02 0.0000000000000000e+00  1.0379455440846117e+00 -2.9136113049391184e-02 0.0000000000000000e+00  1.0330249643291307e+00 -4.0325219040238142e-02 0.0000000000000000e+00  1.0283088289007858e+00 -5.5691828027530713e-02 0.0000000000000000e+00  1.0330688183640349e+00 -5.8773909714089162e-02 0.0000000000000000e+00  1.0374143507330316e+00 -6.1866551577362851e-02 0.0000000000000000e+00  1.0427986055338934e+00 -6.4566425920996734e-02 0.0000000000000000e+00  1.0484237373475636e+00 -6.7031570460405657e-02 0.0000000000000000e+00  1.0546623925713750e+00 -6.8973088600070134e-02 0.0000000000000000e+00  1.0614475891001980e+00 -7.0455780021825690e-02 0.0000000000000000e+00  1.0686216393542780e+00 -7.1156473918404434e-02 0.0000000000000000e+00  1.0762499779717747e+00 -7.1181130341966117e-02 0.0000000000000000e+00  1.0838953304573342e+00 -7.0184025063658173e-02 0.0000000000000000e+00  1.0917595029583143e+00 -6.8412691976335607e-02 0.0000000000000000e+00  1.0994998638734517e+00 -6.5748279659316317e-02 0.0000000000000000e+00  1.1071607195239122e+00 -6.1869523927525601e-02 0.0000000000000000e+00  1.1142236608102705e+00 -5.6924954649405772e-02 0.0000000000000000e+00  1.1207329032764153e+00 -5.1193020733673419e-02 0.0000000000000000e+00  1.1265094181652970e+00 -4.4572850695769189e-02 0.0000000000000000e+00  1.1312790840460798e+00 -3.7149236798444500e-02 0.0000000000000000e+00  1.1350106190012015e+00 -2.9129145073054474e-02 0.0000000000000000e+00  1.1375709441502726e+00 -2.0719788168043519e-02 0.0000000000000000e+00  1.1389114362289885e+00 -1.1835244469305948e-02 0.0000000000000000e+00  1.1389689201183191e+00 -3.1500746653049237e-03 0.0000000000000000e+00  1.1377341491151716e+00 5.6709101436523942e-03 0.0000000000000000e+00  1.1350375738371985e+00 1.4228258582241787e-02 0.0000000000000000e+00  1.1312706799890846e+00 2.2125173945511060e-02 0.0000000000000000e+00  1.1261581466652846e+00 2.9234533165136290e-02 0.0000000000000000e+00  1.1200110752606520e+00 3.5430898978451912e-02 0.0000000000000000e+00  1.1129081571712056e+00 4.0542562897539193e-02 0.0000000000000000e+00  1.1050542608065603e+00 4.4214443232139231e-02 0.0000000000000000e+00  1.0966473134118524e+00 4.6566757469014841e-02 0.0000000000000000e+00  1.0879497964283400e+00 4.7503060876419249e-02 0.0000000000000000e+00  1.0793107954228371e+00 4.6769422723957385e-02 0.0000000000000000e+00  1.0708862181883658e+00 4.4535