<?xml version="1.0"?>
<VTKFile type="UnstructuredGrid"  version="0.1"  >
<UnstructuredGrid>
<Piece  NumberOfPoints="10199" NumberOfCells="20110">
<Points>
<DataArray  type="Float64"  NumberOfComponents="3"  format="ascii">0 -5 0  8 -5 0  30 -5 0  40 -5 0  40 5 0  30 5 0  8 5 0  0 5 0  8 -2.5 0  15 -2.5 0  30 -2.5 0  30 2.5 0  15 2.5 0  8 2.5 0  10 0.5 0  10 -0.5 0  0 0 0  0.4210526315780956 -5 0  0.8421052631563433 -5 0  1.263157894734281 -5 0  1.684210526311999 -5 0  2.105263157889717 -5 0  2.526315789467435 -5 0  2.947368421045153 -5 0  3.368421052622872 -5 0  3.78947368420059 -5 0  4.210526315779479 -5 0  4.631578947359537 -5 0  5.052631578939595 -5 0  5.473684210519653 -5 0  5.89473684209971 -5 0  6.315789473679768 -5 0  6.736842105259826 -5 0  7.157894736839884 -5 0  7.578947368419942 -5 0  8.407407407405314 -5 0  8.814814814810628 -5 0  9.222222222215942 -5 0  9.629629629621256 -5 0  10.03703703702657 -5 0  10.44444444443188 -5 0  10.8518518518372 -5 0  11.25925925924251 -5 0  11.66666666664783 -5 0  12.07407407405314 -5 0  12.48148148145846 -5 0  12.88888888886377 -5 0  13.29629629626908 -5 0  13.7037037036744 -5 0  14.11111111107971 -5 0  14.51851851848502 -5 0  14.92592592589034 -5 0  15.33333333329565 -5 0  15.74074074070096 -5 0  16.14814814810754 -5 0  16.55555555551614 -5 0  16.96296296292474 -5 0  17.37037037033335 -5 0  17.77777777774195 -5 0  18.18518518515056 -5 0  18.59259259255916 -5 0  18.99999999996776 -5 0  19.40740740737636 -5 0  19.81481481478497 -5 0  20.22222222219357 -5 0  20.62962962960217 -5 0  21.03703703701077 -5 0  21.44444444441937 -5 0  21.85185185182797 -5 0  22.25925925923657 -5 0  22.66666666664518 -5 0  23.07407407405378 -5 0  23.48148148146238 -5 0  23.88888888887098 -5 0  24.29629629627958 -5 0  24.70370370368818 -5 0  25.11111111109678 -5 0  25.51851851850539 -5 0  25.92592592591399 -5 0  26.33333333332259 -5 0  26.74074074073119 -5 0  27.14814814813979 -5 0  27.55555555554839 -5 0  27.96296296295699 -5 0  28.3703703703656 -5 0  28.7777777777742 -5 0  29.1851851851828 -5 0  29.5925925925914 -5 0  30.41666666667852 -5 0  30.83333333335704 -5 0  31.25000000003556 -5 0  31.66666666671408 -5 0  32.08333333338936 -5 0  32.50000000005308 -5 0  32.9166666667168 -5 0  33.33333333338052 -5 0  33.75000000004424 -5 0  34.16666666670795 -5 0  34.58333333337167 -5 0  35.00000000003539 -5 0  35.41666666669911 -5 0  35.83333333336282 -5 0  36.25000000002654 -5 0  36.66666666669026 -5 0  37.08333333335398 -5 0  37.50000000001769 -5 0  37.91666666668141 -5 0  38.33333333334513 -5 0  38.75000000000885 -5 0  39.16666666667257 -5 0  39.58333333333628 -5 0  40 -4.583333333332821 0  40 -4.166666666665642 0  40 -3.74999999999855 0  40 -3.333333333333135 0  40 -2.916666666667806 0  40 -2.500000000002478 0  40 -2.083333333337148 0  40 -1.666666666671818 0  40 -1.250000000006488 0  40 -0.8333333333405228 0  40 -0.4166666666733416 0  40 -6.163070054299169e-12 0  40 0.4166666666610173 0  40 0.8333333333281976 0  40 1.249999999995378 0  40 1.666666666662558 0  40 2.083333333329739 0  40 2.499999999996919 0  40 2.916666666664099 0  40 3.33333333333128 0  40 3.74999999999846 0  40 4.166666666665641 0  40 4.583333333332821 0  39.58333333333628 5 0  39.16666666667256 5 0  38.75000000000885 5 0  38.33333333334513 5 0  37.91666666668141 5 0  37.50000000001769 5 0  37.08333333335398 5 0  36.66666666669025 5 0  36.25000000002654 5 0  35.83333333336282 5 0  35.41666666669911 5 0  35.00000000003539 5 0  34.58333333337167 5 0  34.16666666670795 5 0  33.75000000004424 5 0  33.33333333338052 5 0  32.9166666667168 5 0  32.50000000005308 5 0  32.08333333338936 5 0  31.66666666671408 5 0  31.25000000003556 5 0  30.83333333335704 5 0  30.41666666667852 5 0  29.59259259259259 5 0  29.18518518518519 5 0  28.77777777777778 5 0  28.37037037037037 5 0  27.96296296296296 5 0  27.55555555555556 5 0  27.14814814814815 5 0  26.74074074074074 5 0  26.33333333333333 5 0  25.92592592592593 5 0  25.51851851851852 5 0  25.11111111111111 5 0  24.7037037037037 5 0  24.2962962962963 5 0  23.88888888888889 5 0  23.48148148148148 5 0  23.07407407407408 5 0  22.66666666666667 5 0  22.25925925925926 5 0  21.85185185185185 5 0  21.44444444444445 5 0  21.03703703703704 5 0  20.62962962962963 5 0  20.22222222222222 5 0  19.81481481481482 5 0  19.40740740740741 5 0  19 5 0  18.5925925925926 5 0  18.18518518518519 5 0  17.77777777777778 5 0  17.37037037037037 5 0  16.96296296296296 5 0  16.55555555555556 5 0  16.14814814814815 5 0  15.74074074074074 5 0  15.33333333333333 5 0  14.92592592592593 5 0  14.51851851851852 5 0  14.11111111111111 5 0  13.70370370370371 5 0  13.2962962962963 5 0  12.88888888888889 5 0  12.48148148148148 5 0  12.07407407407408 5 0  11.66666666666667 5 0  11.25925925925926 5 0  10.85185185185185 5 0  10.44444444444445 5 0  10.03703703703704 5 0  9.629629629629633 5 0  9.222222222222221 5 0  8.814814814814817 5 0  8.407407407407408 5 0  7.5789473684193 5 0  7.157894736838599 5 0  6.73684210526082 5 0  6.315789473684795 5 0  5.894736842108769 5 0  5.473684210532742 5 0  5.052631578956715 5 0  4.631578947380689 5 0  4.210526315804662 5 0  3.789473684226299 5 0  3.368421052645599 5 0  2.947368421064898 5 0  2.526315789484198 5 0  2.105263157903499 5 0  1.6842105263228 5 0  1.2631578947421 5 0  0.8421052631613994 5 0  0.4210526315806993 5 0  0 4.545454545454545 0  0 4.09090909090909 0  0 3.636363636363634 0  0 3.18181818181818 0  0 2.727272727272726 0  0 2.272727272727271 0  0 1.818181818181817 0  0 1.363636363636363 0  0 0.9090909090909092 0  0 0.454545454545455 0  0 -0.4545454545450807 0  0 -0.9090909090895867 0  0 -1.363636363633713 0  0 -1.818181818177841 0  0 -2.272727272723127 0  0 -2.727272727269273 0  0 -3.181818181815419 0  0 -3.636363636361564 0  0 -4.090909090907709 0  0 -4.545454545453855 0  8 -4.499999999999999 0  8 -3.999999999999999 0  8 -3.499999999999999 0  8 -3 0  8.137254901963859 -2.5 0  8.274509803926303 -2.5 0  8.411764705886863 -2.5 0  8.549019607849138 -2.5 0  8.686274509809513 -2.5 0  8.82352941176989 -2.5 0  8.960784313730265 -2.5 0  9.098039215690642 -2.5 0  9.235294117651017 -2.5 0  9.372549019611395 -2.5 0  9.50980392157177 -2.5 0  9.647058823532147 -2.5 0  9.784313725492522 -2.5 0  9.921568627452897 -2.5 0  10.05882352941327 -2.5 0  10.19607843137365 -2.5 0  10.33333333333402 -2.5 0  10.4705882352944 -2.5 0  10.60784313725478 -2.5 0  10.74509803921515 -2.5 0  10.88235294117553 -2.5 0  11.0196078431359 -2.5 0  11.15686274509628 -2.5 0  11.29411764705665 -2.5 0  11.43137254901703 -2.5 0  11.56862745097915 -2.5 0  11.70588235294301 -2.5 0  11.84313725490686 -2.5 0  11.98039215687072 -2.5 0  12.11764705883209 -2.5 0  12.25490196079247 -2.5 0  12.39215686275285 -2.5 0  12.52941176471322 -2.5 0  12.6666666666736 -2.5 0  12.80392156863397 -2.5 0  12.94117647059435 -2.5 0  13.07843137255473 -2.5 0  13.2156862745151 -2.5 0  13.35294117647548 -2.5 0  13.49019607843586 -2.5 0  13.62745098039623 -2.5 0  13.76470588235661 -2.5 0  13.90196078431699 -2.5 0  14.03921568627736 -2.5 0  14.17647058823774 -2.5 0  14.31372549019812 -2.5 0  14.45098039215849 -2.5 0  14.58823529411887 -2.5 0  14.72549019607925 -2.5 0  14.86274509803962 -2.5 0  15.20270270270254 -2.5 0  15.40540540540509 -2.5 0  15.60810810810763 -2.5 0  15.81081081081017 -2.5 0  16.01351351351227 -2.5 0  16.21621621621265 -2.5 0  16.41891891891279 -2.5 0  16.62162162161294 -2.5 0  16.82432432431308 -2.5 0  17.02702702701322 -2.5 0  17.22972972971337 -2.5 0  17.43243243241351 -2.5 0  17.63513513511365 -2.5 0  17.83783783781379 -2.5 0  18.04054054051394 -2.5 0  18.24324324321408 -2.5 0  18.44594594591422 -2.5 0  18.64864864861436 -2.5 0  18.85135135131451 -2.5 0  19.05405405401465 -2.5 0  19.25675675671479 -2.5 0  19.45945945941494 -2.5 0  19.66216216211508 -2.5 0  19.86486486481522 -2.5 0  20.06756756751536 -2.5 0  20.27027027021551 -2.5 0  20.47297297291565 -2.5 0  20.6756756756158 -2.5 0  20.87837837831594 -2.5 0  21.08108108101608 -2.5 0  21.28378378371622 -2.5 0  21.48648648641637 -2.5 0  21.68918918911651 -2.5 0  21.89189189181666 -2.5 0  22.0945945945168 -2.5 0  22.29729729721694 -2.5 0  22.49999999991778 -2.5 0  22.70270270262203 -2.5 0  22.90540540532697 -2.5 0  23.10810810803191 -2.5 0  23.31081081073686 -2.5 0  23.5135135134418 -2.5 0  23.71621621614674 -2.5 0  23.91891891885169 -2.5 0  24.12162162155663 -2.5 0  24.32432432426158 -2.5 0  24.52702702696652 -2.5 0  24.72972972967146 -2.5 0  24.93243243237641 -2.5 0  25.13513513508135 -2.5 0  25.3378378377863 -2.5 0  25.54054054049124 -2.5 0  25.74324324319618 -2.5 0  25.94594594590112 -2.5 0  26.14864864860607 -2.5 0  26.35135135131101 -2.5 0  26.55405405401596 -2.5 0  26.7567567567209 -2.5 0  26.95945945942584 -2.5 0  27.16216216213079 -2.5 0  27.36486486483573 -2.5 0  27.56756756754068 -2.5 0  27.77027027024562 -2.5 0  27.97297297295056 -2.5 0  28.1756756756555 -2.5 0  28.37837837836045 -2.5 0  28.5810810810654 -2.5 0  28.78378378377034 -2.5 0  28.98648648647528 -2.5 0  29.18918918918023 -2.5 0  29.39189189188517 -2.5 0  29.59459459459011 -2.5 0  29.79729729729506 -2.5 0  30 -3.000000000000001 0  30 -3.500000000000001 0  30 -4.000000000000001 0  30 -4.5 0  8 4.499999999999999 0  8 3.999999999999999 0  8 3.499999999999999 0  8 3 0  8.137254901963859 2.5 0  8.274509803926303 2.5 0  8.411764705886863 2.5 0  8.549019607849138 2.5 0  8.686274509809513 2.5 0  8.82352941176989 2.5 0  8.960784313730265 2.5 0  9.098039215690642 2.5 0  9.235294117651017 2.5 0  9.372549019611395 2.5 0  9.50980392157177 2.5 0  9.647058823532147 2.5 0  9.784313725492522 2.5 0  9.921568627452897 2.5 0  10.05882352941327 2.5 0  10.19607843137365 2.5 0  10.33333333333402 2.5 0  10.4705882352944 2.5 0  10.60784313725478 2.5 0  10.74509803921515 2.5 0  10.88235294117553 2.5 0  11.0196078431359 2.5 0  11.15686274509628 2.5 0  11.29411764705665 2.5 0  11.43137254901703 2.5 0  11.56862745097915 2.5 0  11.70588235294301 2.5 0  11.84313725490686 2.5 0  11.98039215687072 2.5 0  12.11764705883209 2.5 0  12.25490196079247 2.5 0  1
[...]
<PointData  Vectors="f_17"> 
<DataArray  type="Float64"  Name="f_17"  NumberOfComponents="3" format="ascii">1.0000001296656589e+00 0.0000000000000000e+00 0.0000000000000000e+00  1.0439832793244839e+00 0.0000000000000000e+00 0.0000000000000000e+00  9.9759927642927526e-01 0.0000000000000000e+00 0.0000000000000000e+00  1.0001719435707346e+00 0.0000000000000000e+00 0.0000000000000000e+00  9.9981125643617352e-01 0.0000000000000000e+00 0.0000000000000000e+00  9.9779905898941057e-01 0.0000000000000000e+00 0.0000000000000000e+00  1.0435156843442968e+00 0.0000000000000000e+00 0.0000000000000000e+00  1.0000001296656589e+00 0.0000000000000000e+00 0.0000000000000000e+00  1.0221021599296909e+00 -5.4638367081262067e-02 0.0000000000000000e+00  1.0231266319134653e+00 4.6777445843955066e-02 0.0000000000000000e+00  1.0007401092082426e+00 4.2764861159684543e-05 0.0000000000000000e+00  1.0004939270206374e+00 -1.1955069080654554e-04 0.0000000000000000e+00  1.0231189903279583e+00 -4.6564081975873174e-02 0.0000000000000000e+00  1.0217878114194359e+00 5.4465303247514467e-02 0.0000000000000000e+00  0.0000000000000000e+00 0.0000000000000000e+00 0.0000000000000000e+00  0.0000000000000000e+00 0.0000000000000000e+00 0.0000000000000000e+00  1.0000001296656589e+00 0.0000000000000000e+00 0.0000000000000000e+00  9.9930355757249045e-01 0.0000000000000000e+00 0.0000000000000000e+00  9.9876909235964173e-01 0.0000000000000000e+00 0.0000000000000000e+00  1.0008166086980299e+00 0.0000000000000000e+00 0.0000000000000000e+00  1.0006500836471588e+00 0.0000000000000000e+00 0.0000000000000000e+00  1.0016270717340192e+00 0.0000000000000000e+00 0.0000000000000000e+00  1.0019648290776224e+00 0.0000000000000000e+00 0.0000000000000000e+00  1.0022758918585450e+00 0.0000000000000000e+00 0.0000000000000000e+00  1.0031183612602974e+00 0.0000000000000000e+00 0.0000000000000000e+00  1.0043712057102576e+00 0.0000000000000000e+00 0.0000000000000000e+00  1.0055353166029848e+00 0.0000000000000000e+00 0.0000000000000000e+00  1.0070709163288369e+00 0.0000000000000000e+00 0.0000000000000000e+00  1.0093711957154650e+00 0.0000000000000000e+00 0.0000000000000000e+00  1.0118188464839255e+00 0.0000000000000000e+00 0.0000000000000000e+00  1.0158997763314421e+00 0.0000000000000000e+00 0.0000000000000000e+00  1.0178135679033782e+00 0.0000000000000000e+00 0.0000000000000000e+00  1.0226727074209065e+00 0.0000000000000000e+00 0.0000000000000000e+00  1.0298687949595973e+00 0.0000000000000000e+00 0.0000000000000000e+00  1.0356661169611632e+00 0.0000000000000000e+00 0.0000000000000000e+00  1.0524215432103059e+00 0.0000000000000000e+00 0.0000000000000000e+00  1.0613621238509701e+00 0.0000000000000000e+00 0.0000000000000000e+00  1.0697583163746029e+00 0.0000000000000000e+00 0.0000000000000000e+00  1.0785770334002962e+00 0.0000000000000000e+00 0.0000000000000000e+00  1.0856230048948232e+00 0.0000000000000000e+00 0.0000000000000000e+00  1.0915319938854871e+00 0.0000000000000000e+00 0.0000000000000000e+00  1.0963549371735213e+00 0.0000000000000000e+00 0.0000000000000000e+00  1.0977650394695935e+00 0.0000000000000000e+00 0.0000000000000000e+00  1.0973500197240413e+00 0.0000000000000000e+00 0.0000000000000000e+00  1.0943609353033052e+00 0.0000000000000000e+00 0.0000000000000000e+00  1.0896234600263357e+00 0.0000000000000000e+00 0.0000000000000000e+00  1.0822238630367753e+00 0.0000000000000000e+00 0.0000000000000000e+00  1.0747779302264202e+00 0.0000000000000000e+00 0.0000000000000000e+00  1.0664669143208407e+00 0.0000000000000000e+00 0.0000000000000000e+00  1.0578651886981425e+00 0.0000000000000000e+00 0.0000000000000000e+00  1.0498996610130209e+00 0.0000000000000000e+00 0.0000000000000000e+00  1.0422939963628337e+00 0.0000000000000000e+00 0.0000000000000000e+00  1.0354904040990101e+00 0.0000000000000000e+00 0.0000000000000000e+00  1.0290725930736799e+00 0.0000000000000000e+00 0.0000000000000000e+00  1.0230983887521419e+00 0.0000000000000000e+00 0.0000000000000000e+00  1.0188336626403063e+00 0.0000000000000000e+00 0.0000000000000000e+00  1.0155353775288842e+00 0.0000000000000000e+00 0.0000000000000000e+00  1.0116017298889224e+00 0.0000000000000000e+00 0.0000000000000000e+00  1.0090017759450332e+00 0.0000000000000000e+00 0.0000000000000000e+00  1.0067056796330038e+00 0.0000000000000000e+00 0.0000000000000000e+00  1.0047170816837927e+00 0.0000000000000000e+00 0.0000000000000000e+00  1.0035277740412669e+00 0.0000000000000000e+00 0.0000000000000000e+00  1.0021887119582564e+00 0.0000000000000000e+00 0.0000000000000000e+00  1.0011852059758855e+00 0.0000000000000000e+00 0.0000000000000000e+00  1.0007870134423782e+00 0.0000000000000000e+00 0.0000000000000000e+00  9.9974011341562641e-01 0.0000000000000000e+00 0.0000000000000000e+00  9.9871032344687571e-01 0.0000000000000000e+00 0.0000000000000000e+00  9.9919260775032337e-01 0.0000000000000000e+00 0.0000000000000000e+00  9.9868245980325177e-01 0.0000000000000000e+00 0.0000000000000000e+00  9.9805302136676410e-01 0.0000000000000000e+00 0.0000000000000000e+00  9.9844625282766353e-01 0.0000000000000000e+00 0.0000000000000000e+00  9.9799430130551048e-01 0.0000000000000000e+00 0.0000000000000000e+00  9.9738624516416419e-01 0.0000000000000000e+00 0.0000000000000000e+00  9.9824278490379459e-01 0.0000000000000000e+00 0.0000000000000000e+00  9.9815892472377654e-01 0.0000000000000000e+00 0.0000000000000000e+00  9.9794339036630864e-01 0.0000000000000000e+00 0.0000000000000000e+00  9.9844936213387647e-01 0.0000000000000000e+00 0.0000000000000000e+00  9.9822012590315889e-01 0.0000000000000000e+00 0.0000000000000000e+00  9.9797040983590579e-01 0.0000000000000000e+00 0.0000000000000000e+00  9.9836556010185440e-01 0.0000000000000000e+00 0.0000000000000000e+00  9.9787699970764887e-01 0.0000000000000000e+00 0.0000000000000000e+00  9.9715799095211122e-01 0.0000000000000000e+00 0.0000000000000000e+00  9.9884941360713442e-01 0.0000000000000000e+00 0.0000000000000000e+00  9.9859854917140223e-01 0.0000000000000000e+00 0.0000000000000000e+00  9.9681493533252785e-01 0.0000000000000000e+00 0.0000000000000000e+00  9.9609799812151678e-01 0.0000000000000000e+00 0.0000000000000000e+00  9.9704258848485094e-01 0.0000000000000000e+00 0.0000000000000000e+00  9.9709146748135147e-01 0.0000000000000000e+00 0.0000000000000000e+00  9.9778575824002391e-01 0.0000000000000000e+00 0.0000000000000000e+00  9.9722175674108560e-01 0.0000000000000000e+00 0.0000000000000000e+00  9.9663400093870502e-01 0.0000000000000000e+00 0.0000000000000000e+00  9.9692348960699972e-01 0.0000000000000000e+00 0.0000000000000000e+00  9.9722427124968349e-01 0.0000000000000000e+00 0.0000000000000000e+00  9.9712624699504793e-01 0.0000000000000000e+00 0.0000000000000000e+00  9.9709944839496079e-01 0.0000000000000000e+00 0.0000000000000000e+00  9.9737219135539734e-01 0.0000000000000000e+00 0.0000000000000000e+00  9.9767938349821539e-01 0.0000000000000000e+00 0.0000000000000000e+00  9.9753964183169530e-01 0.0000000000000000e+00 0.0000000000000000e+00  9.9793205202315971e-01 0.0000000000000000e+00 0.0000000000000000e+00  9.9815985735932666e-01 0.0000000000000000e+00 0.0000000000000000e+00  9.9815693085793356e-01 0.0000000000000000e+00 0.0000000000000000e+00  9.9862521453940567e-01 0.0000000000000000e+00 0.0000000000000000e+00  9.9888199476023298e-01 0.0000000000000000e+00 0.0000000000000000e+00  9.9955249394132406e-01 0.0000000000000000e+00 0.0000000000000000e+00  9.9923981127858641e-01 0.0000000000000000e+00 0.0000000000000000e+00  9.9946797733431547e-01 0.0000000000000000e+00 0.0000000000000000e+00  9.9939215285154515e-01 0.0000000000000000e+00 0.0000000000000000e+00  9.9995864910520327e-01 0.0000000000000000e+00 0.0000000000000000e+00  9.9983865551902029e-01 0.0000000000000000e+00 0.0000000000000000e+00  1.0002760175719383e+00 0.0000000000000000e+00 0.0000000000000000e+00  9.9982243801063919e-01 0.0000000000000000e+00 0.0000000000000000e+00  1.0000923173262208e+00 2.2982111089516348e-05 0.0000000000000000e+00  9.9987768664562537e-01 -8.4111581839693255e-05 0.0000000000000000e+00  1.0004640026224241e+00 -1.0762857623108571e-04 0.0000000000000000e+00  1.0000642257777932e+00 -2.8593117615620353e-05 0.0000000000000000e+00  1.0005346306885745e+00 -4.7226069544591865e-05 0.0000000000000000e+00  1.0000920060884957e+00 3.3562735391747580e-05 0.0000000000000000e+00  9.9978608973140060e-01 1.1133784834434434e-04 0.0000000000000000e+00  1.0001863918084881e+00 1.5834212590164760e-04 0.0000000000000000e+00  1.0002379121714364e+00 8.6075525943791494e-05 0.0000000000000000e+00  1.0003178929242142e+00 1.2382571405877884e-04 0.0000000000000000e+00  1.0012821736042516e+00 -5.5050882929940487e-04 0.0000000000000000e+00  1.0013164901650748e+00 -3.6600915101387646e-04 0.0000000000000000e+00  9.9987935263402994e-01 -5.1756861725108481e-04 0.0000000000000000e+00  9.9885399609316838e-01 -3.7184258385082500e-04 0.0000000000000000e+00  9.9987305362717271e-01 1.9162798935867014e-04 0.0000000000000000e+00  1.0008305224006284e+00 4.8698937437385137e-04 0.0000000000000000e+00  1.0000503043618367e+00 -6.0609003751572710e-05 0.0000000000000000e+00  9.9979553125623133e-01 3.0804845864549856e-05 0.0000000000000000e+00  9.9924094001237240e-01 1.6080516154503186e-04 0.0000000000000000e+00  9.9958679059001798e-01 1.3597726847812443e-04 0.0000000000000000e+00  9.9936826850789584e-01 1.3351681204095903e-04 0.0000000000000000e+00  9.9998961097893535e-01 7.0786237149528364e-05 0.0000000000000000e+00  1.0000558246612048e+00 -4.0635201635071141e-05 0.0000000000000000e+00  9.9963386398223208e-01 0.0000000000000000e+00 0.0000000000000000e+00  9.9957843812556302e-01 0.0000000000000000e+00 0.0000000000000000e+00  9.9951223260935596e-01 0.0000000000000000e+00 0.0000000000000000e+00  9.9974884196472402e-01 0.0000000000000000e+00 0.0000000000000000e+00  9.9931965088180519e-01 0.0000000000000000e+00 0.0000000000000000e+00  9.9935293866059682e-01 0.0000000000000000e+00 0.0000000000000000e+00  9.9956035457636982e-01 0.0000000000000000e+00 0.0000000000000000e+00  9.9985656679096546e-01 0.0000000000000000e+00 0.0000000000000000e+00  9.9944276156569523e-01 0.0000000000000000e+00 0.0000000000000000e+00  9.9926919642052892e-01 0.0000000000000000e+00 0.0000000000000000e+00  9.9890670595287934e-01 0.0000000000000000e+00 0.0000000000000000e+00  9.9841847346405821e-01 0.0000000000000000e+00 0.0000000000000000e+00  9.9805982500562729e-01 0.0000000000000000e+00 0.0000000000000000e+00  9.9843287137770087e-01 0.0000000000000000e+00 0.0000000000000000e+00  9.9805477259600095e-01 0.0000000000000000e+00 0.0000000000000000e+00  9.9865109237920813e-01 0.0000000000000000e+00 0.0000000000000000e+00  9.9796363397829990e-01 0.0000000000000000e+00 0.0000000000000000e+00  9.9782350450913304e-01 0.0000000000000000e+00 0.0000000000000000e+00  9.9745989035838600e-01 0.0000000000000000e+00 0.0000000000000000e+00  9.9770587995588611e-01 0.0000000000000000e+00 0.0000000000000000e+00  9.9773944195272457e-01 0.0000000000000000e+00 0.0000000000000000e+00  9.9743746165600744e-01 0.0000000000000000e+00 0.0000000000000000e+00  9.9771940989594365e-01 0.0000000000000000e+00 0.0000000000000000e+00  9.9720526279134725e-01 0.0000000000000000e+00 0.0000000000000000e+00  9.9735062379971839e-01 0.0000000000000000e+00 0.0000000000000000e+00  9.9644678253658092e-01 0.0000000000000000e+00 0.0000000000000000e+00  9.9709439512086129e-01 0.0000000000000000e+00 0.0000000000000000e+00  9.9853919711364691e-01 0.0000000000000000e+00 0.0000000000000000e+00  9.9882261804323591e-01 0.0000000000000000e+00 0.0000000000000000e+00  9.9727003347753973e-01 0.0000000000000000e+00 0.0000000000000000e+00  9.9787239674703199e-01 0.0000000000000000e+00 0.0000000000000000e+00  9.9835044039281839e-01 0.0000000000000000e+00 0.0000000000000000e+00  9.9799808249286703e-01 0.0000000000000000e+00 0.0000000000000000e+00  9.9824588789351953e-01 0.0000000000000000e+00 0.0000000000000000e+00  9.9848329501570365e-01 0.0000000000000000e+00 0.0000000000000000e+00  9.9800011193854188e-01 0.0000000000000000e+00 0.0000000000000000e+00  9.9823931409243249e-01 0.0000000000000000e+00 0.0000000000000000e+00  9.9835558984180384e-01 0.0000000000000000e+00 0.0000000000000000e+00  9.9761119249290153e-01 0.0000000000000000e+00 0.0000000000000000e+00  9.9811449950684283e-01 0.0000000000000000e+00 0.0000000000000000e+00  9.9854916020712103e-01 0.0000000000000000e+00 0.0000000000000000e+00  9.9814418996696630e-01 0.0000000000000000e+00 0.0000000000000000e+00  9.9874286593954731e-01 0.0000000000000000e+00 0.0000000000000000e+00  9.9924456401990558e-01 0.0000000000000000e+00 0.0000000000000000e+00  9.9874459113407654e-01 0.0000000000000000e+00 0.0000000000000000e+00  9.9972585417199356e-01 0.0000000000000000e+00 0.0000000000000000e+00  1.0007315095305254e+00 0.0000000000000000e+00 0.0000000000000000e+00  1.0010779154036324e+00 0.0000000000000000e+00 0.0000000000000000e+00  1.0020518142293018e+00 0.0000000000000000e+00 0.0000000000000000e+00  1.0033236580291351e+00 0.0000000000000000e+00 0.0000000000000000e+00  1.0045174541306909e+00 0.0000000000000000e+00 0.0000000000000000e+00  1.0064590711451800e+00 0.0000000000000000e+00 0.0000000000000000e+00  1.0088058481739233e+00 0.0000000000000000e+00 0.0000000000000000e+00  1.0113618235988246e+00 0.0000000000000000e+00 0.0000000000000000e+00  1.0151731546802922e+00 0.0000000000000000e+00 0.0000000000000000e+00  1.0184676605415568e+00 0.0000000000000000e+00 0.0000000000000000e+00  1.0228064249176283e+00 0.0000000000000000e+00 0.0000000000000000e+00  1.0286677765742380e+00 0.0000000000000000e+00 0.0000000000000000e+00  1.0351790825355296e+00 0.0000000000000000e+00 0.0000000000000000e+00  1.0419296719369184e+00 0.0000000000000000e+00 0.0000000000000000e+00  1.0490124041377522e+00 0.0000000000000000e+00 0.0000000000000000e+00  1.0569802710415248e+00 0.0000000000000000e+00 0.0000000000000000e+00  1.0660353293641485e+00 0.0000000000000000e+00 0.0000000000000000e+00  1.0742976937037145e+00 0.0000000000000000e+00 0.0000000000000000e+00  1.0817528433097341e+00 0.0000000000000000e+00 0.0000000000000000e+00  1.0896163536288506e+00 0.0000000000000000e+00 0.0000000000000000e+00  1.0942301539333090e+00 0.0000000000000000e+00 0.0000000000000000e+00  1.0976575731471097e+00 0.0000000000000000e+00 0.0000000000000000e+00  1.0984153508346868e+00 0.0000000000000000e+00 0.0000000000000000e+00  1.0961435887929336e+00 0.0000000000000000e+00 0.0000000000000000e+00  1.0917714171611597e+00 0.0000000000000000e+00 0.0000000000000000e+00  1.0858004163542003e+00 0.0000000000000000e+00 0.0000000000000000e+00  1.0784118287432181e+00 0.0000000000000000e+00 0.0000000000000000e+00  1.0693343575221195e+00 0.0000000000000000e+00 0.0000000000000000e+00  1.0609906066991968e+00 0.0000000000000000e+00 0.0000000000000000e+00  1.0520081524390215e+00 0.0000000000000000e+00 0.0000000000000000e+00  1.0353913607949161e+00 0.0000000000000000e+00 0.0000000000000000e+00  1.0283304190461595e+00 0.0000000000000000e+00 0.0000000000000000e+00  1.0225263703994178e+00 0.0000000000000000e+00 0.0000000000000000e+00  1.0173975032885567e+00 0.0000000000000000e+00 0.0000000000000000e+00  1.0133526500021883e+00 0.0000000000000000e+00 0.0000000000000000e+00  1.0101533073734079e+00 0.0000000000000000e+00 0.0000000000000000e+00  1.0077074730147391e+00 0.0000000000000000e+00 0.0000000000000000e+00  1.0053920694080445e+00 0.0000000000000000e+00 0.0000000000000000e+00  1.0037843086444296e+00 0.0000000000000000e+00 0.0000000000000000e+00  1.0026810600628906e+00 0.0000000000000000e+00 0.0000000000000000e+00  1.0014331062631046e+00 0.0000000000000000e+00 0.0000000000000000e+00  1.0012527917403136e+00 0.0000000000000000e+00 0.0000000000000000e+00  1.0001922813957196e+00 0.0000000000000000e+00 0.0000000000000000e+00  1.0001758544303905e+00 0.0000000000000000e+00 0.0000000000000000e+00  9.9977893227778492e-01 0.0000000000000000e+00 0.0000000000000000e+00  1.0004882988467632e+00 0.0000000000000000e+00 0.0000000000000000e+00  1.0002471531447212e+00 0.0000000000000000e+00 0.0000000000000000e+00  9.9979739513221200e-01 0.0000000000000000e+00 0.0000000000000000e+00  1.0000001296656589e+00 0.0000000000000000e+00 0.0000000000000000e+00  1.0000001296656589e+00 0.0000000000000000e+00 0.0000000000000000e+00  1.0000001296656589e+00 0.0000000000000000e+00 0.0000000000000000e+00  1.0000001296656589e+00 0.0000000000000000e+00 0.0000000000000000e+00  1.0000001296656589e+00 0.0000000000000000e+00 0.0000000000000000e+00  1.0000001296656589e+00 0.0000000000000000e+00 0.0000000000000000e+00  1.0000001296656589e+00 0.0000000000000000e+00 0.0000000000000000e+00  1.0000001296656589e+00 0.0000000000000000e+00 0.0000000000000000e+00  1.0000001296656589e+00 0.0000000000000000e+00 0.0000000000000000e+00  1.0000001296656589e+00 0.0000000000000000e+00 0.0000000000000000e+00  1.0000001296656589e+00 0.0000000000000000e+00 0.0000000000000000e+00  1.0000001296656589e+00 0.0000000000000000e+00 0.0000000000000000e+00  1.0000001296656589e+00 0.0000000000000000e+00 0.0000000000000000e+00  1.0000001296656589e+00 0.0000000000000000e+00 0.0000000000000000e+00  1.0000001296656589e+00 0.0000000000000000e+00 0.0000000000000000e+00  1.0000001296656589e+00 0.0000000000000000e+00 0.0000000000000000e+00  1.0000001296656589e+00 0.0000000000000000e+00 0.0000000000000000e+00  1.0000001296656589e+00 0.0000000000000000e+00 0.0000000000000000e+00  1.0000001296656589e+00 0.0000000000000000e+00 0.0000000000000000e+00  1.0000001296656589e+00 0.0000000000000000e+00 0.0000000000000000e+00  1.0433547566218693e+00 -9.9583422552005571e-03 0.0000000000000000e+00  1.0403008197150510e+00 -2.0361578519126681e-02 0.0000000000000000e+00  1.0377099199891504e+00 -3.1476095975820823e-02 0.0000000000000000e+00  1.0314174524793622e+00 -4.2984389186190970e-02 0.0000000000000000e+00  1.0248753006395781e+00 -5.8561499937659120e-02 0.0000000000000000e+00  1.0294969923019770e+00 -6.2111391311266584e-02 0.0000000000000000e+00  1.0336940506443875e+00 -6.5744522690141818e-02 0.0000000000000000e+00  1.0389570326497533e+00 -6.9066943590499863e-02 0.0000000000000000e+00  1.0444972425977699e+00 -7.2235778033589063e-02 0.0000000000000000e+00  1.0506885551804768e+00 -7.4978471058986307e-02 0.0000000000000000e+00  1.0574859730150297e+00 -7.7352947237628464e-02 0.0000000000000000e+00  1.0647585890289266e+00 -7.9037771362715115e-02 0.0000000000000000e+00  1.0725666046287905e+00 -8.0164936400464584e-02 0.0000000000000000e+00  1.0805205575570209e+00 -8.0365822288945690e-02 0.0000000000000000e+00  1.0888271093272397e+00 -7.9888110052729222e-02 0.0000000000000000e+00  1.0972021406670847e+00 -7.8585934089756365e-02 0.0000000000000000e+00  1.1056706618945973e+00 -7.6161521089283174e-02 0.0000000000000000e+00  1.1137729062680235e+00 -7.2743436349681015e-02 0.0000000000000000e+00  1.1215912874385885e+00 -6.8548122105983891e-02 0.0000000000000000e+00  1.1289673466265147e+00 -6.3465532703190261e-02 0.0000000000000000e+00  1.1356377510857518e+00 -5.7512212495921242e-02 0.0000000000000000e+00  1.1416445451178880e+00 -5.0879021948610624e-02 0.0000000000000000e+00  1.1467971550041145e+00 -4.3665563329604119e-02 0.0000000000000000e+00  1.1511269275097500e+00 -3.5767246225177907e-02 0.0000000000000000e+00  1.1545342214461762e+00 -2.7706893597123923e-02 0.0000000000000000e+00  1.1570133636486526e+00 -1.9183180395529211e-02 0.0000000000000000e+00  1.1583400884393245e+00 -1.0398337008539328e-02 0.0000000000000000e+00  1.1588629685692913e+00 -1.6465848043484533e-03 0.0000000000000000e+00  1.1582121851827187e+00 7.0086511772777952e-03 0.0000000000000000e+00  1.1566370100298133e+00 1.5527715585049623e-02 0.0000000000000000e+00  1.1540558211143666e+00 2.3767586993151700e-02 0.0000000000000000e+00  1.1505365451961997e+00 3.1472600807560321e-02 0.0000000000000000e+00  1.1461874733804047e+00 3.8778361080184551e-02 0.0000000000000000e+00  1.1410247856748987e+00 4.5558061180779326e-02 0.0000000000000000e+00  1.1352677208527713e+00 5.1568160222877857e-02 0.0000000000000000e+00  1.1289205170433019e+00 5.6856241763221460