<?xml version="1.0"?>
<VTKFile type="UnstructuredGrid"  version="0.1"  >
<UnstructuredGrid>
<Piece  NumberOfPoints="10199" NumberOfCells="20110">
<Points>
<DataArray  type="Float64"  NumberOfComponents="3"  format="ascii">0 -5 0  8 -5 0  30 -5 0  40 -5 0  40 5 0  30 5 0  8 5 0  0 5 0  8 -2.5 0  15 -2.5 0  30 -2.5 0  30 2.5 0  15 2.5 0  8 2.5 0  10 0.5 0  10 -0.5 0  0 0 0  0.4210526315780956 -5 0  0.8421052631563433 -5 0  1.263157894734281 -5 0  1.684210526311999 -5 0  2.105263157889717 -5 0  2.526315789467435 -5 0  2.947368421045153 -5 0  3.368421052622872 -5 0  3.78947368420059 -5 0  4.210526315779479 -5 0  4.631578947359537 -5 0  5.052631578939595 -5 0  5.473684210519653 -5 0  5.89473684209971 -5 0  6.315789473679768 -5 0  6.736842105259826 -5 0  7.157894736839884 -5 0  7.578947368419942 -5 0  8.407407407405314 -5 0  8.814814814810628 -5 0  9.222222222215942 -5 0  9.629629629621256 -5 0  10.03703703702657 -5 0  10.44444444443188 -5 0  10.8518518518372 -5 0  11.25925925924251 -5 0  11.66666666664783 -5 0  12.07407407405314 -5 0  12.48148148145846 -5 0  12.88888888886377 -5 0  13.29629629626908 -5 0  13.7037037036744 -5 0  14.11111111107971 -5 0  14.51851851848502 -5 0  14.92592592589034 -5 0  15.33333333329565 -5 0  15.74074074070096 -5 0  16.14814814810754 -5 0  16.55555555551614 -5 0  16.96296296292474 -5 0  17.37037037033335 -5 0  17.77777777774195 -5 0  18.18518518515056 -5 0  18.59259259255916 -5 0  18.99999999996776 -5 0  19.40740740737636 -5 0  19.81481481478497 -5 0  20.22222222219357 -5 0  20.62962962960217 -5 0  21.03703703701077 -5 0  21.44444444441937 -5 0  21.85185185182797 -5 0  22.25925925923657 -5 0  22.66666666664518 -5 0  23.07407407405378 -5 0  23.48148148146238 -5 0  23.88888888887098 -5 0  24.29629629627958 -5 0  24.70370370368818 -5 0  25.11111111109678 -5 0  25.51851851850539 -5 0  25.92592592591399 -5 0  26.33333333332259 -5 0  26.74074074073119 -5 0  27.14814814813979 -5 0  27.55555555554839 -5 0  27.96296296295699 -5 0  28.3703703703656 -5 0  28.7777777777742 -5 0  29.1851851851828 -5 0  29.5925925925914 -5 0  30.41666666667852 -5 0  30.83333333335704 -5 0  31.25000000003556 -5 0  31.66666666671408 -5 0  32.08333333338936 -5 0  32.50000000005308 -5 0  32.9166666667168 -5 0  33.33333333338052 -5 0  33.75000000004424 -5 0  34.16666666670795 -5 0  34.58333333337167 -5 0  35.00000000003539 -5 0  35.41666666669911 -5 0  35.83333333336282 -5 0  36.25000000002654 -5 0  36.66666666669026 -5 0  37.08333333335398 -5 0  37.50000000001769 -5 0  37.91666666668141 -5 0  38.33333333334513 -5 0  38.75000000000885 -5 0  39.16666666667257 -5 0  39.58333333333628 -5 0  40 -4.583333333332821 0  40 -4.166666666665642 0  40 -3.74999999999855 0  40 -3.333333333333135 0  40 -2.916666666667806 0  40 -2.500000000002478 0  40 -2.083333333337148 0  40 -1.666666666671818 0  40 -1.250000000006488 0  40 -0.8333333333405228 0  40 -0.4166666666733416 0  40 -6.163070054299169e-12 0  40 0.4166666666610173 0  40 0.8333333333281976 0  40 1.249999999995378 0  40 1.666666666662558 0  40 2.083333333329739 0  40 2.499999999996919 0  40 2.916666666664099 0  40 3.33333333333128 0  40 3.74999999999846 0  40 4.166666666665641 0  40 4.583333333332821 0  39.58333333333628 5 0  39.16666666667256 5 0  38.75000000000885 5 0  38.33333333334513 5 0  37.91666666668141 5 0  37.50000000001769 5 0  37.08333333335398 5 0  36.66666666669025 5 0  36.25000000002654 5 0  35.83333333336282 5 0  35.41666666669911 5 0  35.00000000003539 5 0  34.58333333337167 5 0  34.16666666670795 5 0  33.75000000004424 5 0  33.33333333338052 5 0  32.9166666667168 5 0  32.50000000005308 5 0  32.08333333338936 5 0  31.66666666671408 5 0  31.25000000003556 5 0  30.83333333335704 5 0  30.41666666667852 5 0  29.59259259259259 5 0  29.18518518518519 5 0  28.77777777777778 5 0  28.37037037037037 5 0  27.96296296296296 5 0  27.55555555555556 5 0  27.14814814814815 5 0  26.74074074074074 5 0  26.33333333333333 5 0  25.92592592592593 5 0  25.51851851851852 5 0  25.11111111111111 5 0  24.7037037037037 5 0  24.2962962962963 5 0  23.88888888888889 5 0  23.48148148148148 5 0  23.07407407407408 5 0  22.66666666666667 5 0  22.25925925925926 5 0  21.85185185185185 5 0  21.44444444444445 5 0  21.03703703703704 5 0  20.62962962962963 5 0  20.22222222222222 5 0  19.81481481481482 5 0  19.40740740740741 5 0  19 5 0  18.5925925925926 5 0  18.18518518518519 5 0  17.77777777777778 5 0  17.37037037037037 5 0  16.96296296296296 5 0  16.55555555555556 5 0  16.14814814814815 5 0  15.74074074074074 5 0  15.33333333333333 5 0  14.92592592592593 5 0  14.51851851851852 5 0  14.11111111111111 5 0  13.70370370370371 5 0  13.2962962962963 5 0  12.88888888888889 5 0  12.48148148148148 5 0  12.07407407407408 5 0  11.66666666666667 5 0  11.25925925925926 5 0  10.85185185185185 5 0  10.44444444444445 5 0  10.03703703703704 5 0  9.629629629629633 5 0  9.222222222222221 5 0  8.814814814814817 5 0  8.407407407407408 5 0  7.5789473684193 5 0  7.157894736838599 5 0  6.73684210526082 5 0  6.315789473684795 5 0  5.894736842108769 5 0  5.473684210532742 5 0  5.052631578956715 5 0  4.631578947380689 5 0  4.210526315804662 5 0  3.789473684226299 5 0  3.368421052645599 5 0  2.947368421064898 5 0  2.526315789484198 5 0  2.105263157903499 5 0  1.6842105263228 5 0  1.2631578947421 5 0  0.8421052631613994 5 0  0.4210526315806993 5 0  0 4.545454545454545 0  0 4.09090909090909 0  0 3.636363636363634 0  0 3.18181818181818 0  0 2.727272727272726 0  0 2.272727272727271 0  0 1.818181818181817 0  0 1.363636363636363 0  0 0.9090909090909092 0  0 0.454545454545455 0  0 -0.4545454545450807 0  0 -0.9090909090895867 0  0 -1.363636363633713 0  0 -1.818181818177841 0  0 -2.272727272723127 0  0 -2.727272727269273 0  0 -3.181818181815419 0  0 -3.636363636361564 0  0 -4.090909090907709 0  0 -4.545454545453855 0  8 -4.499999999999999 0  8 -3.999999999999999 0  8 -3.499999999999999 0  8 -3 0  8.137254901963859 -2.5 0  8.274509803926303 -2.5 0  8.411764705886863 -2.5 0  8.549019607849138 -2.5 0  8.686274509809513 -2.5 0  8.82352941176989 -2.5 0  8.960784313730265 -2.5 0  9.098039215690642 -2.5 0  9.235294117651017 -2.5 0  9.372549019611395 -2.5 0  9.50980392157177 -2.5 0  9.647058823532147 -2.5 0  9.784313725492522 -2.5 0  9.921568627452897 -2.5 0  10.05882352941327 -2.5 0  10.19607843137365 -2.5 0  10.33333333333402 -2.5 0  10.4705882352944 -2.5 0  10.60784313725478 -2.5 0  10.74509803921515 -2.5 0  10.88235294117553 -2.5 0  11.0196078431359 -2.5 0  11.15686274509628 -2.5 0  11.29411764705665 -2.5 0  11.43137254901703 -2.5 0  11.56862745097915 -2.5 0  11.70588235294301 -2.5 0  11.84313725490686 -2.5 0  11.98039215687072 -2.5 0  12.11764705883209 -2.5 0  12.25490196079247 -2.5 0  12.39215686275285 -2.5 0  12.52941176471322 -2.5 0  12.6666666666736 -2.5 0  12.80392156863397 -2.5 0  12.94117647059435 -2.5 0  13.07843137255473 -2.5 0  13.2156862745151 -2.5 0  13.35294117647548 -2.5 0  13.49019607843586 -2.5 0  13.62745098039623 -2.5 0  13.76470588235661 -2.5 0  13.90196078431699 -2.5 0  14.03921568627736 -2.5 0  14.17647058823774 -2.5 0  14.31372549019812 -2.5 0  14.45098039215849 -2.5 0  14.58823529411887 -2.5 0  14.72549019607925 -2.5 0  14.86274509803962 -2.5 0  15.20270270270254 -2.5 0  15.40540540540509 -2.5 0  15.60810810810763 -2.5 0  15.81081081081017 -2.5 0  16.01351351351227 -2.5 0  16.21621621621265 -2.5 0  16.41891891891279 -2.5 0  16.62162162161294 -2.5 0  16.82432432431308 -2.5 0  17.02702702701322 -2.5 0  17.22972972971337 -2.5 0  17.43243243241351 -2.5 0  17.63513513511365 -2.5 0  17.83783783781379 -2.5 0  18.04054054051394 -2.5 0  18.24324324321408 -2.5 0  18.44594594591422 -2.5 0  18.64864864861436 -2.5 0  18.85135135131451 -2.5 0  19.05405405401465 -2.5 0  19.25675675671479 -2.5 0  19.45945945941494 -2.5 0  19.66216216211508 -2.5 0  19.86486486481522 -2.5 0  20.06756756751536 -2.5 0  20.27027027021551 -2.5 0  20.47297297291565 -2.5 0  20.6756756756158 -2.5 0  20.87837837831594 -2.5 0  21.08108108101608 -2.5 0  21.28378378371622 -2.5 0  21.48648648641637 -2.5 0  21.68918918911651 -2.5 0  21.89189189181666 -2.5 0  22.0945945945168 -2.5 0  22.29729729721694 -2.5 0  22.49999999991778 -2.5 0  22.70270270262203 -2.5 0  22.90540540532697 -2.5 0  23.10810810803191 -2.5 0  23.31081081073686 -2.5 0  23.5135135134418 -2.5 0  23.71621621614674 -2.5 0  23.91891891885169 -2.5 0  24.12162162155663 -2.5 0  24.32432432426158 -2.5 0  24.52702702696652 -2.5 0  24.72972972967146 -2.5 0  24.93243243237641 -2.5 0  25.13513513508135 -2.5 0  25.3378378377863 -2.5 0  25.54054054049124 -2.5 0  25.74324324319618 -2.5 0  25.94594594590112 -2.5 0  26.14864864860607 -2.5 0  26.35135135131101 -2.5 0  26.55405405401596 -2.5 0  26.7567567567209 -2.5 0  26.95945945942584 -2.5 0  27.16216216213079 -2.5 0  27.36486486483573 -2.5 0  27.56756756754068 -2.5 0  27.77027027024562 -2.5 0  27.97297297295056 -2.5 0  28.1756756756555 -2.5 0  28.37837837836045 -2.5 0  28.5810810810654 -2.5 0  28.78378378377034 -2.5 0  28.98648648647528 -2.5 0  29.18918918918023 -2.5 0  29.39189189188517 -2.5 0  29.59459459459011 -2.5 0  29.79729729729506 -2.5 0  30 -3.000000000000001 0  30 -3.500000000000001 0  30 -4.000000000000001 0  30 -4.5 0  8 4.499999999999999 0  8 3.999999999999999 0  8 3.499999999999999 0  8 3 0  8.137254901963859 2.5 0  8.274509803926303 2.5 0  8.411764705886863 2.5 0  8.549019607849138 2.5 0  8.686274509809513 2.5 0  8.82352941176989 2.5 0  8.960784313730265 2.5 0  9.098039215690642 2.5 0  9.235294117651017 2.5 0  9.372549019611395 2.5 0  9.50980392157177 2.5 0  9.647058823532147 2.5 0  9.784313725492522 2.5 0  9.921568627452897 2.5 0  10.05882352941327 2.5 0  10.19607843137365 2.5 0  10.33333333333402 2.5 0  10.4705882352944 2.5 0  10.60784313725478 2.5 0  10.74509803921515 2.5 0  10.88235294117553 2.5 0  11.0196078431359 2.5 0  11.15686274509628 2.5 0  11.29411764705665 2.5 0  11.43137254901703 2.5 0  11.56862745097915 2.5 0  11.70588235294301 2.5 0  11.84313725490686 2.5 0  11.98039215687072 2.5 0  12.11764705883209 2.5 0  12.25490196079247 2.5 0  1
[...]
<PointData  Vectors="f_17"> 
<DataArray  type="Float64"  Name="f_17"  NumberOfComponents="3" format="ascii">1.0000001294019019e+00 0.0000000000000000e+00 0.0000000000000000e+00  1.0400492301228645e+00 0.0000000000000000e+00 0.0000000000000000e+00  9.9800223655609976e-01 0.0000000000000000e+00 0.0000000000000000e+00  1.0002685274614793e+00 0.0000000000000000e+00 0.0000000000000000e+00  9.9998270626206143e-01 0.0000000000000000e+00 0.0000000000000000e+00  9.9818586887054050e-01 0.0000000000000000e+00 0.0000000000000000e+00  1.0404810986099113e+00 0.0000000000000000e+00 0.0000000000000000e+00  1.0000001294019019e+00 0.0000000000000000e+00 0.0000000000000000e+00  1.0216258996238377e+00 -5.0465640235669990e-02 0.0000000000000000e+00  1.0092983338607375e+00 3.2177184478462476e-02 0.0000000000000000e+00  1.0005882201186536e+00 4.3021338822437020e-05 0.0000000000000000e+00  1.0002921318927394e+00 -1.3795506665876400e-04 0.0000000000000000e+00  1.0093298675596756e+00 -3.2091596676023730e-02 0.0000000000000000e+00  1.0214194549032056e+00 5.0344825841838421e-02 0.0000000000000000e+00  0.0000000000000000e+00 0.0000000000000000e+00 0.0000000000000000e+00  0.0000000000000000e+00 0.0000000000000000e+00 0.0000000000000000e+00  1.0000001294019019e+00 0.0000000000000000e+00 0.0000000000000000e+00  9.9930031960730048e-01 0.0000000000000000e+00 0.0000000000000000e+00  9.9876000903863926e-01 0.0000000000000000e+00 0.0000000000000000e+00  1.0008050860342519e+00 0.0000000000000000e+00 0.0000000000000000e+00  1.0006262018133225e+00 0.0000000000000000e+00 0.0000000000000000e+00  1.0015900628729211e+00 0.0000000000000000e+00 0.0000000000000000e+00  1.0019054991935774e+00 0.0000000000000000e+00 0.0000000000000000e+00  1.0021893372475843e+00 0.0000000000000000e+00 0.0000000000000000e+00  1.0029983480065907e+00 0.0000000000000000e+00 0.0000000000000000e+00  1.0041946618778854e+00 0.0000000000000000e+00 0.0000000000000000e+00  1.0053093866860980e+00 0.0000000000000000e+00 0.0000000000000000e+00  1.0067740942175536e+00 0.0000000000000000e+00 0.0000000000000000e+00  1.0092393549322207e+00 0.0000000000000000e+00 0.0000000000000000e+00  1.0115393548465341e+00 0.0000000000000000e+00 0.0000000000000000e+00  1.0151652477466537e+00 0.0000000000000000e+00 0.0000000000000000e+00  1.0166266439661356e+00 0.0000000000000000e+00 0.0000000000000000e+00  1.0209216425256482e+00 0.0000000000000000e+00 0.0000000000000000e+00  1.0273559814708513e+00 0.0000000000000000e+00 0.0000000000000000e+00  1.0324532114868710e+00 0.0000000000000000e+00 0.0000000000000000e+00  1.0476170128212872e+00 0.0000000000000000e+00 0.0000000000000000e+00  1.0554906133256901e+00 0.0000000000000000e+00 0.0000000000000000e+00  1.0625993042928044e+00 0.0000000000000000e+00 0.0000000000000000e+00  1.0698645319317843e+00 0.0000000000000000e+00 0.0000000000000000e+00  1.0751565887205221e+00 0.0000000000000000e+00 0.0000000000000000e+00  1.0791412941753107e+00 0.0000000000000000e+00 0.0000000000000000e+00  1.0820063445836654e+00 0.0000000000000000e+00 0.0000000000000000e+00  1.0815610560020397e+00 0.0000000000000000e+00 0.0000000000000000e+00  1.0794948537204534e+00 0.0000000000000000e+00 0.0000000000000000e+00  1.0751591287967390e+00 0.0000000000000000e+00 0.0000000000000000e+00  1.0696132931103433e+00 0.0000000000000000e+00 0.0000000000000000e+00  1.0619284184135471e+00 0.0000000000000000e+00 0.0000000000000000e+00  1.0547162916515791e+00 0.0000000000000000e+00 0.0000000000000000e+00  1.0472093493352184e+00 0.0000000000000000e+00 0.0000000000000000e+00  1.0398252734177740e+00 0.0000000000000000e+00 0.0000000000000000e+00  1.0333575677319777e+00 0.0000000000000000e+00 0.0000000000000000e+00  1.0274673557703875e+00 0.0000000000000000e+00 0.0000000000000000e+00  1.0224367267046952e+00 0.0000000000000000e+00 0.0000000000000000e+00  1.0177699697544829e+00 0.0000000000000000e+00 0.0000000000000000e+00  1.0134544304031643e+00 0.0000000000000000e+00 0.0000000000000000e+00  1.0107502708927514e+00 0.0000000000000000e+00 0.0000000000000000e+00  1.0088278751864903e+00 0.0000000000000000e+00 0.0000000000000000e+00  1.0060505374423299e+00 0.0000000000000000e+00 0.0000000000000000e+00  1.0045461723347668e+00 0.0000000000000000e+00 0.0000000000000000e+00  1.0031615809991876e+00 0.0000000000000000e+00 0.0000000000000000e+00  1.0019758692664180e+00 0.0000000000000000e+00 0.0000000000000000e+00  1.0014499246315096e+00 0.0000000000000000e+00 0.0000000000000000e+00  1.0006439023303610e+00 0.0000000000000000e+00 0.0000000000000000e+00  1.0000578734569519e+00 0.0000000000000000e+00 0.0000000000000000e+00  9.9999079202634122e-01 0.0000000000000000e+00 0.0000000000000000e+00  9.9923722113159885e-01 0.0000000000000000e+00 0.0000000000000000e+00  9.9848922142635088e-01 0.0000000000000000e+00 0.0000000000000000e+00  9.9919720204901408e-01 0.0000000000000000e+00 0.0000000000000000e+00  9.9889093538390983e-01 0.0000000000000000e+00 0.0000000000000000e+00  9.9842373370962578e-01 0.0000000000000000e+00 0.0000000000000000e+00  9.9891127985096395e-01 0.0000000000000000e+00 0.0000000000000000e+00  9.9847487430391624e-01 0.0000000000000000e+00 0.0000000000000000e+00  9.9785325114846646e-01 0.0000000000000000e+00 0.0000000000000000e+00  9.9867787231501381e-01 0.0000000000000000e+00 0.0000000000000000e+00  9.9853346968483647e-01 0.0000000000000000e+00 0.0000000000000000e+00  9.9827573676453374e-01 0.0000000000000000e+00 0.0000000000000000e+00  9.9878152103306828e-01 0.0000000000000000e+00 0.0000000000000000e+00  9.9856971152995111e-01 0.0000000000000000e+00 0.0000000000000000e+00  9.9834843142814245e-01 0.0000000000000000e+00 0.0000000000000000e+00  9.9876718865398773e-01 0.0000000000000000e+00 0.0000000000000000e+00  9.9830038812547750e-01 0.0000000000000000e+00 0.0000000000000000e+00  9.9761199458925076e-01 0.0000000000000000e+00 0.0000000000000000e+00  9.9931974695815740e-01 0.0000000000000000e+00 0.0000000000000000e+00  9.9906951728768456e-01 0.0000000000000000e+00 0.0000000000000000e+00  9.9728564705090617e-01 0.0000000000000000e+00 0.0000000000000000e+00  9.9655136265168154e-01 0.0000000000000000e+00 0.0000000000000000e+00  9.9746239294682615e-01 0.0000000000000000e+00 0.0000000000000000e+00  9.9750180704345759e-01 0.0000000000000000e+00 0.0000000000000000e+00  9.9817839206906223e-01 0.0000000000000000e+00 0.0000000000000000e+00  9.9763922726602561e-01 0.0000000000000000e+00 0.0000000000000000e+00  9.9708586405828425e-01 0.0000000000000000e+00 0.0000000000000000e+00  9.9740180691983660e-01 0.0000000000000000e+00 0.0000000000000000e+00  9.9774450448544350e-01 0.0000000000000000e+00 0.0000000000000000e+00  9.9770154980547965e-01 0.0000000000000000e+00 0.0000000000000000e+00  9.9778451155833991e-01 0.0000000000000000e+00 0.0000000000000000e+00  9.9824549443403054e-01 0.0000000000000000e+00 0.0000000000000000e+00  9.9873264071093770e-01 0.0000000000000000e+00 0.0000000000000000e+00  9.9866332191610241e-01 0.0000000000000000e+00 0.0000000000000000e+00  9.9899436174897738e-01 0.0000000000000000e+00 0.0000000000000000e+00  9.9908633329107488e-01 0.0000000000000000e+00 0.0000000000000000e+00  9.9891767320404401e-01 0.0000000000000000e+00 0.0000000000000000e+00  9.9925494777917601e-01 0.0000000000000000e+00 0.0000000000000000e+00  9.9946554072669991e-01 0.0000000000000000e+00 0.0000000000000000e+00  1.0001244084430343e+00 0.0000000000000000e+00 0.0000000000000000e+00  9.9977556526757028e-01 0.0000000000000000e+00 0.0000000000000000e+00  9.9993313758359492e-01 0.0000000000000000e+00 0.0000000000000000e+00  9.9975267809817314e-01 0.0000000000000000e+00 0.0000000000000000e+00  1.0001996616810840e+00 0.0000000000000000e+00 0.0000000000000000e+00  1.0000075856455650e+00 0.0000000000000000e+00 0.0000000000000000e+00  1.0004146897287174e+00 0.0000000000000000e+00 0.0000000000000000e+00  9.9993588742009742e-01 0.0000000000000000e+00 0.0000000000000000e+00  1.0001339016167394e+00 3.6928638631315307e-05 0.0000000000000000e+00  9.9987680894083253e-01 -5.5009443954552036e-05 0.0000000000000000e+00  1.0003961438356381e+00 -8.2186665309983716e-05 0.0000000000000000e+00  9.9990321437857910e-01 -2.4411811052965965e-05 0.0000000000000000e+00  1.0003459405968951e+00 -6.3488534201428941e-05 0.0000000000000000e+00  9.9995486635966324e-01 -1.1355126995511284e-05 0.0000000000000000e+00  9.9968594747741246e-01 3.1534628207932892e-05 0.0000000000000000e+00  1.0001653470587988e+00 5.7035898446980914e-05 0.0000000000000000e+00  1.0003537554224147e+00 6.3792604328810168e-05 0.0000000000000000e+00  1.0004837025863131e+00 2.5420762371647154e-04 0.0000000000000000e+00  1.0013313906535908e+00 -3.7078346734139921e-04 0.0000000000000000e+00  1.0013203820098797e+00 -2.3476935314840978e-04 0.0000000000000000e+00  9.9988886504369923e-01 -4.6776811156552778e-04 0.0000000000000000e+00  9.9885577283165139e-01 -3.6946862340682147e-04 0.0000000000000000e+00  9.9987125492366635e-01 1.9832755597673504e-04 0.0000000000000000e+00  1.0007550792470874e+00 4.9822807383431938e-04 0.0000000000000000e+00  9.9994172551635740e-01 -4.1813429606834388e-05 0.0000000000000000e+00  9.9971308040515228e-01 6.2710380611844939e-05 0.0000000000000000e+00  9.9925480890808660e-01 2.0069556157554120e-04 0.0000000000000000e+00  9.9964751926763240e-01 1.7378957696442937e-04 0.0000000000000000e+00  9.9941690262615501e-01 1.5631010141242628e-04 0.0000000000000000e+00  1.0001232081249847e+00 8.6785833042241772e-05 0.0000000000000000e+00  1.0002259815643337e+00 -2.4408460308066414e-05 0.0000000000000000e+00  9.9977418228078208e-01 0.0000000000000000e+00 0.0000000000000000e+00  9.9969085736241836e-01 0.0000000000000000e+00 0.0000000000000000e+00  9.9959246507046484e-01 0.0000000000000000e+00 0.0000000000000000e+00  9.9980541672660150e-01 0.0000000000000000e+00 0.0000000000000000e+00  9.9941026098628993e-01 0.0000000000000000e+00 0.0000000000000000e+00  9.9951881253191066e-01 0.0000000000000000e+00 0.0000000000000000e+00  9.9980117805865587e-01 0.0000000000000000e+00 0.0000000000000000e+00  1.0001659808026091e+00 0.0000000000000000e+00 0.0000000000000000e+00  9.9982383869690428e-01 0.0000000000000000e+00 0.0000000000000000e+00  9.9977184938779984e-01 0.0000000000000000e+00 0.0000000000000000e+00  9.9958182518561056e-01 0.0000000000000000e+00 0.0000000000000000e+00  9.9925162184110727e-01 0.0000000000000000e+00 0.0000000000000000e+00  9.9900854561238761e-01 0.0000000000000000e+00 0.0000000000000000e+00  9.9941633340827196e-01 0.0000000000000000e+00 0.0000000000000000e+00  9.9897266040901556e-01 0.0000000000000000e+00 0.0000000000000000e+00  9.9941646287736741e-01 0.0000000000000000e+00 0.0000000000000000e+00  9.9857689021869778e-01 0.0000000000000000e+00 0.0000000000000000e+00  9.9835648877131289e-01 0.0000000000000000e+00 0.0000000000000000e+00  9.9795236875965121e-01 0.0000000000000000e+00 0.0000000000000000e+00  9.9816753058454588e-01 0.0000000000000000e+00 0.0000000000000000e+00  9.9818007857901603e-01 0.0000000000000000e+00 0.0000000000000000e+00  9.9784604892041229e-01 0.0000000000000000e+00 0.0000000000000000e+00  9.9809897564827321e-01 0.0000000000000000e+00 0.0000000000000000e+00  9.9759747002009380e-01 0.0000000000000000e+00 0.0000000000000000e+00  9.9775183443952031e-01 0.0000000000000000e+00 0.0000000000000000e+00  9.9688297705065254e-01 0.0000000000000000e+00 0.0000000000000000e+00  9.9755143283183267e-01 0.0000000000000000e+00 0.0000000000000000e+00  9.9899816869607305e-01 0.0000000000000000e+00 0.0000000000000000e+00  9.9928297203320848e-01 0.0000000000000000e+00 0.0000000000000000e+00  9.9771628102737242e-01 0.0000000000000000e+00 0.0000000000000000e+00  9.9829113061590602e-01 0.0000000000000000e+00 0.0000000000000000e+00  9.9874911517939435e-01 0.0000000000000000e+00 0.0000000000000000e+00  9.9837281088248142e-01 0.0000000000000000e+00 0.0000000000000000e+00  9.9858935795237913e-01 0.0000000000000000e+00 0.0000000000000000e+00  9.9880272401966996e-01 0.0000000000000000e+00 0.0000000000000000e+00  9.9830784051606847e-01 0.0000000000000000e+00 0.0000000000000000e+00  9.9857071703199796e-01 0.0000000000000000e+00 0.0000000000000000e+00  9.9873178316722777e-01 0.0000000000000000e+00 0.0000000000000000e+00  9.9801415750562250e-01 0.0000000000000000e+00 0.0000000000000000e+00  9.9854032070454724e-01 0.0000000000000000e+00 0.0000000000000000e+00  9.9897640498470774e-01 0.0000000000000000e+00 0.0000000000000000e+00  9.9849878167596229e-01 0.0000000000000000e+00 0.0000000000000000e+00  9.9895521801230980e-01 0.0000000000000000e+00 0.0000000000000000e+00  9.9926596894133013e-01 0.0000000000000000e+00 0.0000000000000000e+00  9.9856519156886347e-01 0.0000000000000000e+00 0.0000000000000000e+00  9.9930125095805200e-01 0.0000000000000000e+00 0.0000000000000000e+00  1.0000530493880631e+00 0.0000000000000000e+00 0.0000000000000000e+00  1.0001135094219626e+00 0.0000000000000000e+00 0.0000000000000000e+00  1.0007184255087849e+00 0.0000000000000000e+00 0.0000000000000000e+00  1.0014649904641066e+00 0.0000000000000000e+00 0.0000000000000000e+00  1.0019597060549088e+00 0.0000000000000000e+00 0.0000000000000000e+00  1.0030500654030512e+00 0.0000000000000000e+00 0.0000000000000000e+00  1.0044321267518226e+00 0.0000000000000000e+00 0.0000000000000000e+00  1.0058316019991822e+00 0.0000000000000000e+00 0.0000000000000000e+00  1.0084443316238372e+00 0.0000000000000000e+00 0.0000000000000000e+00  1.0103696565967462e+00 0.0000000000000000e+00 0.0000000000000000e+00  1.0131787870252140e+00 0.0000000000000000e+00 0.0000000000000000e+00  1.0174031058801272e+00 0.0000000000000000e+00 0.0000000000000000e+00  1.0221691612870745e+00 0.0000000000000000e+00 0.0000000000000000e+00  1.0271656258398765e+00 0.0000000000000000e+00 0.0000000000000000e+00  1.0325522781230794e+00 0.0000000000000000e+00 0.0000000000000000e+00  1.0390253992763041e+00 0.0000000000000000e+00 0.0000000000000000e+00  1.0468647822289625e+00 0.0000000000000000e+00 0.0000000000000000e+00  1.0542987221776645e+00 0.0000000000000000e+00 0.0000000000000000e+00  1.0614862569990378e+00 0.0000000000000000e+00 0.0000000000000000e+00  1.0695812125254012e+00 0.0000000000000000e+00 0.0000000000000000e+00  1.0749518518281171e+00 0.0000000000000000e+00 0.0000000000000000e+00  1.0796710619140937e+00 0.0000000000000000e+00 0.0000000000000000e+00  1.0820954689557054e+00 0.0000000000000000e+00 0.0000000000000000e+00  1.0817517454625230e+00 0.0000000000000000e+00 0.0000000000000000e+00  1.0793972531867488e+00 0.0000000000000000e+00 0.0000000000000000e+00  1.0754655672935198e+00 0.0000000000000000e+00 0.0000000000000000e+00  1.0700029047918889e+00 0.0000000000000000e+00 0.0000000000000000e+00  1.0626883224442323e+00 0.0000000000000000e+00 0.0000000000000000e+00  1.0558032893924638e+00 0.0000000000000000e+00 0.0000000000000000e+00  1.0480390590513209e+00 0.0000000000000000e+00 0.0000000000000000e+00  1.0330065438278071e+00 0.0000000000000000e+00 0.0000000000000000e+00  1.0264361638413502e+00 0.0000000000000000e+00 0.0000000000000000e+00  1.0212549189445392e+00 0.0000000000000000e+00 0.0000000000000000e+00  1.0165685880619917e+00 0.0000000000000000e+00 0.0000000000000000e+00  1.0127811537872660e+00 0.0000000000000000e+00 0.0000000000000000e+00  1.0099054498505375e+00 0.0000000000000000e+00 0.0000000000000000e+00  1.0076399480008886e+00 0.0000000000000000e+00 0.0000000000000000e+00  1.0051207324362450e+00 0.0000000000000000e+00 0.0000000000000000e+00  1.0035456010458410e+00 0.0000000000000000e+00 0.0000000000000000e+00  1.0025057709937131e+00 0.0000000000000000e+00 0.0000000000000000e+00  1.0013056005916365e+00 0.0000000000000000e+00 0.0000000000000000e+00  1.0011650707002120e+00 0.0000000000000000e+00 0.0000000000000000e+00  1.0001330726770223e+00 0.0000000000000000e+00 0.0000000000000000e+00  1.0001382959996221e+00 0.0000000000000000e+00 0.0000000000000000e+00  9.9975786729168670e-01 0.0000000000000000e+00 0.0000000000000000e+00  1.0004768522480827e+00 0.0000000000000000e+00 0.0000000000000000e+00  1.0002426452654878e+00 0.0000000000000000e+00 0.0000000000000000e+00  9.9979721773872199e-01 0.0000000000000000e+00 0.0000000000000000e+00  1.0000001294019019e+00 0.0000000000000000e+00 0.0000000000000000e+00  1.0000001294019019e+00 0.0000000000000000e+00 0.0000000000000000e+00  1.0000001294019019e+00 0.0000000000000000e+00 0.0000000000000000e+00  1.0000001294019019e+00 0.0000000000000000e+00 0.0000000000000000e+00  1.0000001294019019e+00 0.0000000000000000e+00 0.0000000000000000e+00  1.0000001294019019e+00 0.0000000000000000e+00 0.0000000000000000e+00  1.0000001294019019e+00 0.0000000000000000e+00 0.0000000000000000e+00  1.0000001294019019e+00 0.0000000000000000e+00 0.0000000000000000e+00  1.0000001294019019e+00 0.0000000000000000e+00 0.0000000000000000e+00  1.0000001294019019e+00 0.0000000000000000e+00 0.0000000000000000e+00  1.0000001294019019e+00 0.0000000000000000e+00 0.0000000000000000e+00  1.0000001294019019e+00 0.0000000000000000e+00 0.0000000000000000e+00  1.0000001294019019e+00 0.0000000000000000e+00 0.0000000000000000e+00  1.0000001294019019e+00 0.0000000000000000e+00 0.0000000000000000e+00  1.0000001294019019e+00 0.0000000000000000e+00 0.0000000000000000e+00  1.0000001294019019e+00 0.0000000000000000e+00 0.0000000000000000e+00  1.0000001294019019e+00 0.0000000000000000e+00 0.0000000000000000e+00  1.0000001294019019e+00 0.0000000000000000e+00 0.0000000000000000e+00  1.0000001294019019e+00 0.0000000000000000e+00 0.0000000000000000e+00  1.0000001294019019e+00 0.0000000000000000e+00 0.0000000000000000e+00  1.0399786510973679e+00 -8.9343242978043372e-03 0.0000000000000000e+00  1.0381797504832395e+00 -1.8198337578765007e-02 0.0000000000000000e+00  1.0360017264587857e+00 -2.8355192996667524e-02 0.0000000000000000e+00  1.0300308644191820e+00 -3.9175947286299424e-02 0.0000000000000000e+00  1.0243781573165545e+00 -5.4010060665363693e-02 0.0000000000000000e+00  1.0289480227993411e+00 -5.7160797991015776e-02 0.0000000000000000e+00  1.0330977746235104e+00 -6.0355422564627510e-02 0.0000000000000000e+00  1.0382896960417847e+00 -6.3200578369517688e-02 0.0000000000000000e+00  1.0437376701344925e+00 -6.5851712432714801e-02 0.0000000000000000e+00  1.0498092314304341e+00 -6.8027460305612492e-02 0.0000000000000000e+00  1.0564518654361992e+00 -6.9787078092941393e-02 0.0000000000000000e+00  1.0635164358413374e+00 -7.0806936976474985e-02 0.0000000000000000e+00  1.0710706783616524e+00 -7.1205417460857859e-02 0.0000000000000000e+00  1.0786941362734273e+00 -7.0621954888382438e-02 0.0000000000000000e+00  1.0865936245160213e+00 -6.9306207293348743e-02 0.0000000000000000e+00  1.0944512152070165e+00 -6.7126196427356455e-02 0.0000000000000000e+00  1.1023066607101257e+00 -6.3767119420141530e-02 0.0000000000000000e+00  1.1096665820211615e+00 -5.9366968112115143e-02 0.0000000000000000e+00  1.1165879174346904e+00 -5.4180787087825470e-02 0.0000000000000000e+00  1.1229065110409622e+00 -4.8098420465072615e-02 0.0000000000000000e+00  1.1283545482918815e+00 -4.1179830061099119e-02 0.0000000000000000e+00  1.1329275000246586e+00 -3.3615453121045996e-02 0.0000000000000000e+00  1.1364900966724294e+00 -2.5576765777602397e-02 0.0000000000000000e+00  1.1390187416883419e+00 -1.6957689076149120e-02 0.0000000000000000e+00  1.1404493945427003e+00 -8.3766166318725837e-03 0.0000000000000000e+00  1.1407773646792922e+00 5.2602705243532917e-04 0.0000000000000000e+00  1.1398396434957954e+00 9.4090062587467264e-03 0.0000000000000000e+00  1.1379943426739103e+00 1.7942534530452262e-02 0.0000000000000000e+00  1.1349637278853228e+00 2.6059364988746461e-02 0.0000000000000000e+00  1.1310046708304893e+00 3.3695485377215839e-02 0.0000000000000000e+00  1.1261485508862641e+00 4.0737750964389627e-02 0.0000000000000000e+00  1.1205341887059017e+00 4.6912292389207327e-02 0.0000000000000000e+00  1.1142710379444125e+00 5.2368035172694220e-02 0.0000000000000000e+00  1.1075235908085355e+00 5.7036202487932341e-02 0.0000000000000000e+00  1.1004996842763677e+00 6.0721949642281801e-02 0.0000000000000000e+00  1.0932447488794144e+00 6.3556693440908391e-