<?xml version="1.0"?>
<VTKFile type="UnstructuredGrid"  version="0.1"  >
<UnstructuredGrid>
<Piece  NumberOfPoints="10199" NumberOfCells="20110">
<Points>
<DataArray  type="Float64"  NumberOfComponents="3"  format="ascii">0 -5 0  8 -5 0  30 -5 0  40 -5 0  40 5 0  30 5 0  8 5 0  0 5 0  8 -2.5 0  15 -2.5 0  30 -2.5 0  30 2.5 0  15 2.5 0  8 2.5 0  10 0.5 0  10 -0.5 0  0 0 0  0.4210526315780956 -5 0  0.8421052631563433 -5 0  1.263157894734281 -5 0  1.684210526311999 -5 0  2.105263157889717 -5 0  2.526315789467435 -5 0  2.947368421045153 -5 0  3.368421052622872 -5 0  3.78947368420059 -5 0  4.210526315779479 -5 0  4.631578947359537 -5 0  5.052631578939595 -5 0  5.473684210519653 -5 0  5.89473684209971 -5 0  6.315789473679768 -5 0  6.736842105259826 -5 0  7.157894736839884 -5 0  7.578947368419942 -5 0  8.407407407405314 -5 0  8.814814814810628 -5 0  9.222222222215942 -5 0  9.629629629621256 -5 0  10.03703703702657 -5 0  10.44444444443188 -5 0  10.8518518518372 -5 0  11.25925925924251 -5 0  11.66666666664783 -5 0  12.07407407405314 -5 0  12.48148148145846 -5 0  12.88888888886377 -5 0  13.29629629626908 -5 0  13.7037037036744 -5 0  14.11111111107971 -5 0  14.51851851848502 -5 0  14.92592592589034 -5 0  15.33333333329565 -5 0  15.74074074070096 -5 0  16.14814814810754 -5 0  16.55555555551614 -5 0  16.96296296292474 -5 0  17.37037037033335 -5 0  17.77777777774195 -5 0  18.18518518515056 -5 0  18.59259259255916 -5 0  18.99999999996776 -5 0  19.40740740737636 -5 0  19.81481481478497 -5 0  20.22222222219357 -5 0  20.62962962960217 -5 0  21.03703703701077 -5 0  21.44444444441937 -5 0  21.85185185182797 -5 0  22.25925925923657 -5 0  22.66666666664518 -5 0  23.07407407405378 -5 0  23.48148148146238 -5 0  23.88888888887098 -5 0  24.29629629627958 -5 0  24.70370370368818 -5 0  25.11111111109678 -5 0  25.51851851850539 -5 0  25.92592592591399 -5 0  26.33333333332259 -5 0  26.74074074073119 -5 0  27.14814814813979 -5 0  27.55555555554839 -5 0  27.96296296295699 -5 0  28.3703703703656 -5 0  28.7777777777742 -5 0  29.1851851851828 -5 0  29.5925925925914 -5 0  30.41666666667852 -5 0  30.83333333335704 -5 0  31.25000000003556 -5 0  31.66666666671408 -5 0  32.08333333338936 -5 0  32.50000000005308 -5 0  32.9166666667168 -5 0  33.33333333338052 -5 0  33.75000000004424 -5 0  34.16666666670795 -5 0  34.58333333337167 -5 0  35.00000000003539 -5 0  35.41666666669911 -5 0  35.83333333336282 -5 0  36.25000000002654 -5 0  36.66666666669026 -5 0  37.08333333335398 -5 0  37.50000000001769 -5 0  37.91666666668141 -5 0  38.33333333334513 -5 0  38.75000000000885 -5 0  39.16666666667257 -5 0  39.58333333333628 -5 0  40 -4.583333333332821 0  40 -4.166666666665642 0  40 -3.74999999999855 0  40 -3.333333333333135 0  40 -2.916666666667806 0  40 -2.500000000002478 0  40 -2.083333333337148 0  40 -1.666666666671818 0  40 -1.250000000006488 0  40 -0.8333333333405228 0  40 -0.4166666666733416 0  40 -6.163070054299169e-12 0  40 0.4166666666610173 0  40 0.8333333333281976 0  40 1.249999999995378 0  40 1.666666666662558 0  40 2.083333333329739 0  40 2.499999999996919 0  40 2.916666666664099 0  40 3.33333333333128 0  40 3.74999999999846 0  40 4.166666666665641 0  40 4.583333333332821 0  39.58333333333628 5 0  39.16666666667256 5 0  38.75000000000885 5 0  38.33333333334513 5 0  37.91666666668141 5 0  37.50000000001769 5 0  37.08333333335398 5 0  36.66666666669025 5 0  36.25000000002654 5 0  35.83333333336282 5 0  35.41666666669911 5 0  35.00000000003539 5 0  34.58333333337167 5 0  34.16666666670795 5 0  33.75000000004424 5 0  33.33333333338052 5 0  32.9166666667168 5 0  32.50000000005308 5 0  32.08333333338936 5 0  31.66666666671408 5 0  31.25000000003556 5 0  30.83333333335704 5 0  30.41666666667852 5 0  29.59259259259259 5 0  29.18518518518519 5 0  28.77777777777778 5 0  28.37037037037037 5 0  27.96296296296296 5 0  27.55555555555556 5 0  27.14814814814815 5 0  26.74074074074074 5 0  26.33333333333333 5 0  25.92592592592593 5 0  25.51851851851852 5 0  25.11111111111111 5 0  24.7037037037037 5 0  24.2962962962963 5 0  23.88888888888889 5 0  23.48148148148148 5 0  23.07407407407408 5 0  22.66666666666667 5 0  22.25925925925926 5 0  21.85185185185185 5 0  21.44444444444445 5 0  21.03703703703704 5 0  20.62962962962963 5 0  20.22222222222222 5 0  19.81481481481482 5 0  19.40740740740741 5 0  19 5 0  18.5925925925926 5 0  18.18518518518519 5 0  17.77777777777778 5 0  17.37037037037037 5 0  16.96296296296296 5 0  16.55555555555556 5 0  16.14814814814815 5 0  15.74074074074074 5 0  15.33333333333333 5 0  14.92592592592593 5 0  14.51851851851852 5 0  14.11111111111111 5 0  13.70370370370371 5 0  13.2962962962963 5 0  12.88888888888889 5 0  12.48148148148148 5 0  12.07407407407408 5 0  11.66666666666667 5 0  11.25925925925926 5 0  10.85185185185185 5 0  10.44444444444445 5 0  10.03703703703704 5 0  9.629629629629633 5 0  9.222222222222221 5 0  8.814814814814817 5 0  8.407407407407408 5 0  7.5789473684193 5 0  7.157894736838599 5 0  6.73684210526082 5 0  6.315789473684795 5 0  5.894736842108769 5 0  5.473684210532742 5 0  5.052631578956715 5 0  4.631578947380689 5 0  4.210526315804662 5 0  3.789473684226299 5 0  3.368421052645599 5 0  2.947368421064898 5 0  2.526315789484198 5 0  2.105263157903499 5 0  1.6842105263228 5 0  1.2631578947421 5 0  0.8421052631613994 5 0  0.4210526315806993 5 0  0 4.545454545454545 0  0 4.09090909090909 0  0 3.636363636363634 0  0 3.18181818181818 0  0 2.727272727272726 0  0 2.272727272727271 0  0 1.818181818181817 0  0 1.363636363636363 0  0 0.9090909090909092 0  0 0.454545454545455 0  0 -0.4545454545450807 0  0 -0.9090909090895867 0  0 -1.363636363633713 0  0 -1.818181818177841 0  0 -2.272727272723127 0  0 -2.727272727269273 0  0 -3.181818181815419 0  0 -3.636363636361564 0  0 -4.090909090907709 0  0 -4.545454545453855 0  8 -4.499999999999999 0  8 -3.999999999999999 0  8 -3.499999999999999 0  8 -3 0  8.137254901963859 -2.5 0  8.274509803926303 -2.5 0  8.411764705886863 -2.5 0  8.549019607849138 -2.5 0  8.686274509809513 -2.5 0  8.82352941176989 -2.5 0  8.960784313730265 -2.5 0  9.098039215690642 -2.5 0  9.235294117651017 -2.5 0  9.372549019611395 -2.5 0  9.50980392157177 -2.5 0  9.647058823532147 -2.5 0  9.784313725492522 -2.5 0  9.921568627452897 -2.5 0  10.05882352941327 -2.5 0  10.19607843137365 -2.5 0  10.33333333333402 -2.5 0  10.4705882352944 -2.5 0  10.60784313725478 -2.5 0  10.74509803921515 -2.5 0  10.88235294117553 -2.5 0  11.0196078431359 -2.5 0  11.15686274509628 -2.5 0  11.29411764705665 -2.5 0  11.43137254901703 -2.5 0  11.56862745097915 -2.5 0  11.70588235294301 -2.5 0  11.84313725490686 -2.5 0  11.98039215687072 -2.5 0  12.11764705883209 -2.5 0  12.25490196079247 -2.5 0  12.39215686275285 -2.5 0  12.52941176471322 -2.5 0  12.6666666666736 -2.5 0  12.80392156863397 -2.5 0  12.94117647059435 -2.5 0  13.07843137255473 -2.5 0  13.2156862745151 -2.5 0  13.35294117647548 -2.5 0  13.49019607843586 -2.5 0  13.62745098039623 -2.5 0  13.76470588235661 -2.5 0  13.90196078431699 -2.5 0  14.03921568627736 -2.5 0  14.17647058823774 -2.5 0  14.31372549019812 -2.5 0  14.45098039215849 -2.5 0  14.58823529411887 -2.5 0  14.72549019607925 -2.5 0  14.86274509803962 -2.5 0  15.20270270270254 -2.5 0  15.40540540540509 -2.5 0  15.60810810810763 -2.5 0  15.81081081081017 -2.5 0  16.01351351351227 -2.5 0  16.21621621621265 -2.5 0  16.41891891891279 -2.5 0  16.62162162161294 -2.5 0  16.82432432431308 -2.5 0  17.02702702701322 -2.5 0  17.22972972971337 -2.5 0  17.43243243241351 -2.5 0  17.63513513511365 -2.5 0  17.83783783781379 -2.5 0  18.04054054051394 -2.5 0  18.24324324321408 -2.5 0  18.44594594591422 -2.5 0  18.64864864861436 -2.5 0  18.85135135131451 -2.5 0  19.05405405401465 -2.5 0  19.25675675671479 -2.5 0  19.45945945941494 -2.5 0  19.66216216211508 -2.5 0  19.86486486481522 -2.5 0  20.06756756751536 -2.5 0  20.27027027021551 -2.5 0  20.47297297291565 -2.5 0  20.6756756756158 -2.5 0  20.87837837831594 -2.5 0  21.08108108101608 -2.5 0  21.28378378371622 -2.5 0  21.48648648641637 -2.5 0  21.68918918911651 -2.5 0  21.89189189181666 -2.5 0  22.0945945945168 -2.5 0  22.29729729721694 -2.5 0  22.49999999991778 -2.5 0  22.70270270262203 -2.5 0  22.90540540532697 -2.5 0  23.10810810803191 -2.5 0  23.31081081073686 -2.5 0  23.5135135134418 -2.5 0  23.71621621614674 -2.5 0  23.91891891885169 -2.5 0  24.12162162155663 -2.5 0  24.32432432426158 -2.5 0  24.52702702696652 -2.5 0  24.72972972967146 -2.5 0  24.93243243237641 -2.5 0  25.13513513508135 -2.5 0  25.3378378377863 -2.5 0  25.54054054049124 -2.5 0  25.74324324319618 -2.5 0  25.94594594590112 -2.5 0  26.14864864860607 -2.5 0  26.35135135131101 -2.5 0  26.55405405401596 -2.5 0  26.7567567567209 -2.5 0  26.95945945942584 -2.5 0  27.16216216213079 -2.5 0  27.36486486483573 -2.5 0  27.56756756754068 -2.5 0  27.77027027024562 -2.5 0  27.97297297295056 -2.5 0  28.1756756756555 -2.5 0  28.37837837836045 -2.5 0  28.5810810810654 -2.5 0  28.78378378377034 -2.5 0  28.98648648647528 -2.5 0  29.18918918918023 -2.5 0  29.39189189188517 -2.5 0  29.59459459459011 -2.5 0  29.79729729729506 -2.5 0  30 -3.000000000000001 0  30 -3.500000000000001 0  30 -4.000000000000001 0  30 -4.5 0  8 4.499999999999999 0  8 3.999999999999999 0  8 3.499999999999999 0  8 3 0  8.137254901963859 2.5 0  8.274509803926303 2.5 0  8.411764705886863 2.5 0  8.549019607849138 2.5 0  8.686274509809513 2.5 0  8.82352941176989 2.5 0  8.960784313730265 2.5 0  9.098039215690642 2.5 0  9.235294117651017 2.5 0  9.372549019611395 2.5 0  9.50980392157177 2.5 0  9.647058823532147 2.5 0  9.784313725492522 2.5 0  9.921568627452897 2.5 0  10.05882352941327 2.5 0  10.19607843137365 2.5 0  10.33333333333402 2.5 0  10.4705882352944 2.5 0  10.60784313725478 2.5 0  10.74509803921515 2.5 0  10.88235294117553 2.5 0  11.0196078431359 2.5 0  11.15686274509628 2.5 0  11.29411764705665 2.5 0  11.43137254901703 2.5 0  11.56862745097915 2.5 0  11.70588235294301 2.5 0  11.84313725490686 2.5 0  11.98039215687072 2.5 0  12.11764705883209 2.5 0  12.25490196079247 2.5 0  1
[...]
<PointData  Vectors="f_17"> 
<DataArray  type="Float64"  Name="f_17"  NumberOfComponents="3" format="ascii">1.0000001320657674e+00 0.0000000000000000e+00 0.0000000000000000e+00  1.0486379777773245e+00 0.0000000000000000e+00 0.0000000000000000e+00  9.9636072331020475e-01 0.0000000000000000e+00 0.0000000000000000e+00  9.9848295252002539e-01 0.0000000000000000e+00 0.0000000000000000e+00  9.9854986632515375e-01 0.0000000000000000e+00 0.0000000000000000e+00  9.9661875637353459e-01 0.0000000000000000e+00 0.0000000000000000e+00  1.0479987215522766e+00 0.0000000000000000e+00 0.0000000000000000e+00  1.0000001320657674e+00 0.0000000000000000e+00 0.0000000000000000e+00  1.0222335192349261e+00 -5.9491505647196345e-02 0.0000000000000000e+00  1.0827775744265720e+00 6.9692277066122993e-02 0.0000000000000000e+00  1.0011871842199993e+00 1.0274584090096997e-04 0.0000000000000000e+00  1.0009128361740527e+00 -1.8513664250810794e-04 0.0000000000000000e+00  1.0831070664049078e+00 -6.9842657368716018e-02 0.0000000000000000e+00  1.0218674096891067e+00 5.9432625323633005e-02 0.0000000000000000e+00  0.0000000000000000e+00 0.0000000000000000e+00 0.0000000000000000e+00  0.0000000000000000e+00 0.0000000000000000e+00 0.0000000000000000e+00  1.0000001320657674e+00 0.0000000000000000e+00 0.0000000000000000e+00  9.9931020256626357e-01 0.0000000000000000e+00 0.0000000000000000e+00  9.9878507559261165e-01 0.0000000000000000e+00 0.0000000000000000e+00  1.0008327109942987e+00 0.0000000000000000e+00 0.0000000000000000e+00  1.0006854538085939e+00 0.0000000000000000e+00 0.0000000000000000e+00  1.0016801015743286e+00 0.0000000000000000e+00 0.0000000000000000e+00  1.0020489743425540e+00 0.0000000000000000e+00 0.0000000000000000e+00  1.0024014605061753e+00 0.0000000000000000e+00 0.0000000000000000e+00  1.0032978690050609e+00 0.0000000000000000e+00 0.0000000000000000e+00  1.0046257864193124e+00 0.0000000000000000e+00 0.0000000000000000e+00  1.0058914606291258e+00 0.0000000000000000e+00 0.0000000000000000e+00  1.0075627127317588e+00 0.0000000000000000e+00 0.0000000000000000e+00  1.0100301206334510e+00 0.0000000000000000e+00 0.0000000000000000e+00  1.0127027414561915e+00 0.0000000000000000e+00 0.0000000000000000e+00  1.0170842368141204e+00 0.0000000000000000e+00 0.0000000000000000e+00  1.0193814684323643e+00 0.0000000000000000e+00 0.0000000000000000e+00  1.0247201880980814e+00 0.0000000000000000e+00 0.0000000000000000e+00  1.0323938676495128e+00 0.0000000000000000e+00 0.0000000000000000e+00  1.0390306435534162e+00 0.0000000000000000e+00 0.0000000000000000e+00  1.0585744703149929e+00 0.0000000000000000e+00 0.0000000000000000e+00  1.0693380132076402e+00 0.0000000000000000e+00 0.0000000000000000e+00  1.0799711847521336e+00 0.0000000000000000e+00 0.0000000000000000e+00  1.0915303980182329e+00 0.0000000000000000e+00 0.0000000000000000e+00  1.1017658904096568e+00 0.0000000000000000e+00 0.0000000000000000e+00  1.1114075704851352e+00 0.0000000000000000e+00 0.0000000000000000e+00  1.1203929406737823e+00 0.0000000000000000e+00 0.0000000000000000e+00  1.1262545744088028e+00 0.0000000000000000e+00 0.0000000000000000e+00  1.1304893939057721e+00 0.0000000000000000e+00 0.0000000000000000e+00  1.1320443003529561e+00 0.0000000000000000e+00 0.0000000000000000e+00  1.1314312950344074e+00 0.0000000000000000e+00 0.0000000000000000e+00  1.1275049737425935e+00 0.0000000000000000e+00 0.0000000000000000e+00  1.1226392421309030e+00 0.0000000000000000e+00 0.0000000000000000e+00  1.1156697445090347e+00 0.0000000000000000e+00 0.0000000000000000e+00  1.1074991460274450e+00 0.0000000000000000e+00 0.0000000000000000e+00  1.0988910382572483e+00 0.0000000000000000e+00 0.0000000000000000e+00  1.0896457435575442e+00 0.0000000000000000e+00 0.0000000000000000e+00  1.0805650447576107e+00 0.0000000000000000e+00 0.0000000000000000e+00  1.0712554586714365e+00 0.0000000000000000e+00 0.0000000000000000e+00  1.0621772119790314e+00 0.0000000000000000e+00 0.0000000000000000e+00  1.0545838454040846e+00 0.0000000000000000e+00 0.0000000000000000e+00  1.0480856775760854e+00 0.0000000000000000e+00 0.0000000000000000e+00  1.0409607861512074e+00 0.0000000000000000e+00 0.0000000000000000e+00  1.0353116947797982e+00 0.0000000000000000e+00 0.0000000000000000e+00  1.0301935173325911e+00 0.0000000000000000e+00 0.0000000000000000e+00  1.0255631642824019e+00 0.0000000000000000e+00 0.0000000000000000e+00  1.0219130128360423e+00 0.0000000000000000e+00 0.0000000000000000e+00  1.0183989010268182e+00 0.0000000000000000e+00 0.0000000000000000e+00  1.0153506006553381e+00 0.0000000000000000e+00 0.0000000000000000e+00  1.0130490485701675e+00 0.0000000000000000e+00 0.0000000000000000e+00  1.0102942648527256e+00 0.0000000000000000e+00 0.0000000000000000e+00  1.0076572464173450e+00 0.0000000000000000e+00 0.0000000000000000e+00  1.0067466870947943e+00 0.0000000000000000e+00 0.0000000000000000e+00  1.0049583567646607e+00 0.0000000000000000e+00 0.0000000000000000e+00  1.0031818470499303e+00 0.0000000000000000e+00 0.0000000000000000e+00  1.0025244949390693e+00 0.0000000000000000e+00 0.0000000000000000e+00  1.0011292297097545e+00 0.0000000000000000e+00 0.0000000000000000e+00  9.9971083242877945e-01 0.0000000000000000e+00 0.0000000000000000e+00  9.9985669562090451e-01 0.0000000000000000e+00 0.0000000000000000e+00  9.9915863589337062e-01 0.0000000000000000e+00 0.0000000000000000e+00  9.9843867542886144e-01 0.0000000000000000e+00 0.0000000000000000e+00  9.9853575379527026e-01 0.0000000000000000e+00 0.0000000000000000e+00  9.9797712939243377e-01 0.0000000000000000e+00 0.0000000000000000e+00  9.9748091548907714e-01 0.0000000000000000e+00 0.0000000000000000e+00  9.9768262756045201e-01 0.0000000000000000e+00 0.0000000000000000e+00  9.9703775045526100e-01 0.0000000000000000e+00 0.0000000000000000e+00  9.9620167047176067e-01 0.0000000000000000e+00 0.0000000000000000e+00  9.9777634009296234e-01 0.0000000000000000e+00 0.0000000000000000e+00  9.9742753177525834e-01 0.0000000000000000e+00 0.0000000000000000e+00  9.9558974980751413e-01 0.0000000000000000e+00 0.0000000000000000e+00  9.9484293521965628e-01 0.0000000000000000e+00 0.0000000000000000e+00  9.9577568088505553e-01 0.0000000000000000e+00 0.0000000000000000e+00  9.9582832318280035e-01 0.0000000000000000e+00 0.0000000000000000e+00  9.9658722100904851e-01 0.0000000000000000e+00 0.0000000000000000e+00  9.9605608821012226e-01 0.0000000000000000e+00 0.0000000000000000e+00  9.9548441706925794e-01 0.0000000000000000e+00 0.0000000000000000e+00  9.9576864576400648e-01 0.0000000000000000e+00 0.0000000000000000e+00  9.9605492514173077e-01 0.0000000000000000e+00 0.0000000000000000e+00  9.9594137851267950e-01 0.0000000000000000e+00 0.0000000000000000e+00  9.9588818142423485e-01 0.0000000000000000e+00 0.0000000000000000e+00  9.9613375342902843e-01 0.0000000000000000e+00 0.0000000000000000e+00  9.9641592463186035e-01 0.0000000000000000e+00 0.0000000000000000e+00  9.9624700240712660e-01 0.0000000000000000e+00 0.0000000000000000e+00  9.9658464517336520e-01 0.0000000000000000e+00 0.0000000000000000e+00  9.9670325805522686e-01 0.0000000000000000e+00 0.0000000000000000e+00  9.9652958813854953e-01 0.0000000000000000e+00 0.0000000000000000e+00  9.9682898145716525e-01 0.0000000000000000e+00 0.0000000000000000e+00  9.9700399452512611e-01 0.0000000000000000e+00 0.0000000000000000e+00  9.9766932159151933e-01 0.0000000000000000e+00 0.0000000000000000e+00  9.9736658574687242e-01 0.0000000000000000e+00 0.0000000000000000e+00  9.9757504921113316e-01 0.0000000000000000e+00 0.0000000000000000e+00  9.9746343855878694e-01 0.0000000000000000e+00 0.0000000000000000e+00  9.9800435017112243e-01 0.0000000000000000e+00 0.0000000000000000e+00  9.9790640709408673e-01 0.0000000000000000e+00 0.0000000000000000e+00  9.9840486282148833e-01 0.0000000000000000e+00 0.0000000000000000e+00  9.9803415876478296e-01 0.0000000000000000e+00 0.0000000000000000e+00  9.9883268769932576e-01 -9.0220011528546591e-05 0.0000000000000000e+00  9.9932943047079126e-01 -2.7321137954506664e-04 0.0000000000000000e+00  1.0004005176706241e+00 -3.4258857130570934e-04 0.0000000000000000e+00  1.0003223078714323e+00 -2.8956065546361759e-04 0.0000000000000000e+00  1.0009409805475378e+00 -3.1812458715733727e-04 0.0000000000000000e+00  1.0005833889468081e+00 -2.4189697270285117e-04 0.0000000000000000e+00  1.0003243053974422e+00 -1.7399322663093865e-04 0.0000000000000000e+00  1.0005911593716552e+00 -1.2177386534399224e-04 0.0000000000000000e+00  1.0003496319640766e+00 -1.1299236528578345e-04 0.0000000000000000e+00  1.0004228813493352e+00 5.7394315034753580e-05 0.0000000000000000e+00  1.0016970468607558e+00 -5.3970299159919769e-04 0.0000000000000000e+00  1.0019758025308048e+00 -3.4758243786323605e-04 0.0000000000000000e+00  1.0006030413607463e+00 -5.0932315357142522e-04 0.0000000000000000e+00  9.9949861410551522e-01 -3.6366006937660865e-04 0.0000000000000000e+00  1.0003466662871388e+00 2.2743979907153956e-04 0.0000000000000000e+00  1.0011367390181711e+00 5.6280767927484061e-04 0.0000000000000000e+00  1.0001532101311295e+00 4.5616642636383376e-05 0.0000000000000000e+00  9.9968906644770406e-01 1.5354422613727750e-04 0.0000000000000000e+00  9.9906317476365736e-01 2.9446971641313184e-04 0.0000000000000000e+00  9.9945161362734891e-01 2.9262642990495640e-04 0.0000000000000000e+00  9.9909816116497230e-01 3.0153645599471262e-04 0.0000000000000000e+00  9.9940123448391993e-01 2.2070673335854700e-04 0.0000000000000000e+00  9.9903736214393157e-01 5.7939273759582693e-05 0.0000000000000000e+00  9.9826206576859355e-01 0.0000000000000000e+00 0.0000000000000000e+00  9.9810247195662494e-01 0.0000000000000000e+00 0.0000000000000000e+00  9.9794062569673403e-01 0.0000000000000000e+00 0.0000000000000000e+00  9.9810183889819204e-01 0.0000000000000000e+00 0.0000000000000000e+00  9.9763017794044750e-01 0.0000000000000000e+00 0.0000000000000000e+00  9.9763990156262727e-01 0.0000000000000000e+00 0.0000000000000000e+00  9.9783651355316261e-01 0.0000000000000000e+00 0.0000000000000000e+00  9.9812367578555972e-01 0.0000000000000000e+00 0.0000000000000000e+00  9.9772195886874848e-01 0.0000000000000000e+00 0.0000000000000000e+00  9.9762771433622521e-01 0.0000000000000000e+00 0.0000000000000000e+00  9.9740419277307568e-01 0.0000000000000000e+00 0.0000000000000000e+00  9.9705402226622752e-01 0.0000000000000000e+00 0.0000000000000000e+00  9.9677718958420325e-01 0.0000000000000000e+00 0.0000000000000000e+00  9.9719066734707684e-01 0.0000000000000000e+00 0.0000000000000000e+00  9.9683586522162826e-01 0.0000000000000000e+00 0.0000000000000000e+00  9.9744483616745205e-01 0.0000000000000000e+00 0.0000000000000000e+00  9.9678060189095008e-01 0.0000000000000000e+00 0.0000000000000000e+00  9.9666939379531472e-01 0.0000000000000000e+00 0.0000000000000000e+00  9.9631837169571846e-01 0.0000000000000000e+00 0.0000000000000000e+00  9.9657883681284043e-01 0.0000000000000000e+00 0.0000000000000000e+00  9.9662136809325419e-01 0.0000000000000000e+00 0.0000000000000000e+00  9.9631130472215257e-01 0.0000000000000000e+00 0.0000000000000000e+00  9.9656847918564562e-01 0.0000000000000000e+00 0.0000000000000000e+00  9.9600838600342068e-01 0.0000000000000000e+00 0.0000000000000000e+00  9.9614979998717190e-01 0.0000000000000000e+00 0.0000000000000000e+00  9.9525437229941405e-01 0.0000000000000000e+00 0.0000000000000000e+00  9.9592856072131730e-01 0.0000000000000000e+00 0.0000000000000000e+00  9.9742635176037842e-01 0.0000000000000000e+00 0.0000000000000000e+00  9.9780129418343821e-01 0.0000000000000000e+00 0.0000000000000000e+00  9.9634598928283402e-01 0.0000000000000000e+00 0.0000000000000000e+00  9.9703639766170082e-01 0.0000000000000000e+00 0.0000000000000000e+00  9.9762901432349760e-01 0.0000000000000000e+00 0.0000000000000000e+00  9.9742128600746149e-01 0.0000000000000000e+00 0.0000000000000000e+00  9.9786404262460338e-01 0.0000000000000000e+00 0.0000000000000000e+00  9.9838976012541003e-01 0.0000000000000000e+00 0.0000000000000000e+00  9.9828981793981386e-01 0.0000000000000000e+00 0.0000000000000000e+00  9.9902259857240605e-01 0.0000000000000000e+00 0.0000000000000000e+00  9.9974456865486150e-01 0.0000000000000000e+00 0.0000000000000000e+00  9.9970898415375276e-01 0.0000000000000000e+00 0.0000000000000000e+00  1.0010182637315734e+00 0.0000000000000000e+00 0.0000000000000000e+00  1.0023855674567308e+00 0.0000000000000000e+00 0.0000000000000000e+00  1.0030160065052196e+00 0.0000000000000000e+00 0.0000000000000000e+00  1.0047463901821072e+00 0.0000000000000000e+00 0.0000000000000000e+00  1.0065165110590177e+00 0.0000000000000000e+00 0.0000000000000000e+00  1.0074083411967578e+00 0.0000000000000000e+00 0.0000000000000000e+00  1.0100104133752819e+00 0.0000000000000000e+00 0.0000000000000000e+00  1.0127410877944727e+00 0.0000000000000000e+00 0.0000000000000000e+00  1.0150395812950364e+00 0.0000000000000000e+00 0.0000000000000000e+00  1.0181285565056231e+00 0.0000000000000000e+00 0.0000000000000000e+00  1.0216274517287494e+00 0.0000000000000000e+00 0.0000000000000000e+00  1.0253166696089659e+00 0.0000000000000000e+00 0.0000000000000000e+00  1.0299119305408491e+00 0.0000000000000000e+00 0.0000000000000000e+00  1.0350961388699591e+00 0.0000000000000000e+00 0.0000000000000000e+00  1.0407035313103969e+00 0.0000000000000000e+00 0.0000000000000000e+00  1.0476960196783793e+00 0.0000000000000000e+00 0.0000000000000000e+00  1.0541587260922727e+00 0.0000000000000000e+00 0.0000000000000000e+00  1.0617667597589298e+00 0.0000000000000000e+00 0.0000000000000000e+00  1.0706169053266144e+00 0.0000000000000000e+00 0.0000000000000000e+00  1.0799108156987587e+00 0.0000000000000000e+00 0.0000000000000000e+00  1.0888531232380818e+00 0.0000000000000000e+00 0.0000000000000000e+00  1.0975290343367903e+00 0.0000000000000000e+00 0.0000000000000000e+00  1.1061297721823860e+00 0.0000000000000000e+00 0.0000000000000000e+00  1.1147132024100612e+00 0.0000000000000000e+00 0.0000000000000000e+00  1.1214664514171948e+00 0.0000000000000000e+00 0.0000000000000000e+00  1.1262253660232089e+00 0.0000000000000000e+00 0.0000000000000000e+00  1.1305738696754093e+00 0.0000000000000000e+00 0.0000000000000000e+00  1.1310009730663906e+00 0.0000000000000000e+00 0.0000000000000000e+00  1.1298351179204802e+00 0.0000000000000000e+00 0.0000000000000000e+00  1.1259050583221548e+00 0.0000000000000000e+00 0.0000000000000000e+00  1.1191609620016347e+00 0.0000000000000000e+00 0.0000000000000000e+00  1.1106656659349623e+00 0.0000000000000000e+00 0.0000000000000000e+00  1.1010275058760171e+00 0.0000000000000000e+00 0.0000000000000000e+00  1.0905824004232838e+00 0.0000000000000000e+00 0.0000000000000000e+00  1.0789204985742631e+00 0.0000000000000000e+00 0.0000000000000000e+00  1.0685185161347848e+00 0.0000000000000000e+00 0.0000000000000000e+00  1.0578428333225944e+00 0.0000000000000000e+00 0.0000000000000000e+00  1.0386546211453029e+00 0.0000000000000000e+00 0.0000000000000000e+00  1.0307107081483387e+00 0.0000000000000000e+00 0.0000000000000000e+00  1.0245171761204677e+00 0.0000000000000000e+00 0.0000000000000000e+00  1.0189528511092401e+00 0.0000000000000000e+00 0.0000000000000000e+00  1.0145342665329542e+00 0.0000000000000000e+00 0.0000000000000000e+00  1.0110456349281347e+00 0.0000000000000000e+00 0.0000000000000000e+00  1.0083655540003200e+00 0.0000000000000000e+00 0.0000000000000000e+00  1.0058764659590596e+00 0.0000000000000000e+00 0.0000000000000000e+00  1.0041375972616473e+00 0.0000000000000000e+00 0.0000000000000000e+00  1.0029378699406719e+00 0.0000000000000000e+00 0.0000000000000000e+00  1.0016123179365946e+00 0.0000000000000000e+00 0.0000000000000000e+00  1.0013782295214102e+00 0.0000000000000000e+00 0.0000000000000000e+00  1.0002781527425237e+00 0.0000000000000000e+00 0.0000000000000000e+00  1.0002301040804038e+00 0.0000000000000000e+00 0.0000000000000000e+00  9.9980931831167319e-01 0.0000000000000000e+00 0.0000000000000000e+00  1.0005044457538477e+00 0.0000000000000000e+00 0.0000000000000000e+00  1.0002538132261038e+00 0.0000000000000000e+00 0.0000000000000000e+00  9.9979684811873648e-01 0.0000000000000000e+00 0.0000000000000000e+00  1.0000001320657674e+00 0.0000000000000000e+00 0.0000000000000000e+00  1.0000001320657674e+00 0.0000000000000000e+00 0.0000000000000000e+00  1.0000001320657674e+00 0.0000000000000000e+00 0.0000000000000000e+00  1.0000001320657674e+00 0.0000000000000000e+00 0.0000000000000000e+00  1.0000001320657674e+00 0.0000000000000000e+00 0.0000000000000000e+00  1.0000001320657674e+00 0.0000000000000000e+00 0.0000000000000000e+00  1.0000001320657674e+00 0.0000000000000000e+00 0.0000000000000000e+00  1.0000001320657674e+00 0.0000000000000000e+00 0.0000000000000000e+00  1.0000001320657674e+00 0.0000000000000000e+00 0.0000000000000000e+00  1.0000001320657674e+00 0.0000000000000000e+00 0.0000000000000000e+00  1.0000001320657674e+00 0.0000000000000000e+00 0.0000000000000000e+00  1.0000001320657674e+00 0.0000000000000000e+00 0.0000000000000000e+00  1.0000001320657674e+00 0.0000000000000000e+00 0.0000000000000000e+00  1.0000001320657674e+00 0.0000000000000000e+00 0.0000000000000000e+00  1.0000001320657674e+00 0.0000000000000000e+00 0.0000000000000000e+00  1.0000001320657674e+00 0.0000000000000000e+00 0.0000000000000000e+00  1.0000001320657674e+00 0.0000000000000000e+00 0.0000000000000000e+00  1.0000001320657674e+00 0.0000000000000000e+00 0.0000000000000000e+00  1.0000001320657674e+00 0.0000000000000000e+00 0.0000000000000000e+00  1.0000001320657674e+00 0.0000000000000000e+00 0.0000000000000000e+00  1.0478145405981776e+00 -1.1543809039241805e-02 0.0000000000000000e+00  1.0440325054150377e+00 -2.3143286452535477e-02 0.0000000000000000e+00  1.0404615863162276e+00 -3.5162604768026254e-02 0.0000000000000000e+00  1.0329575924148744e+00 -4.7476447022182608e-02 0.0000000000000000e+00  1.0250211237556752e+00 -6.3954345667234638e-02 0.0000000000000000e+00  1.0296880692603163e+00 -6.8068855449879007e-02 0.0000000000000000e+00  1.0339350331460579e+00 -7.2315350761639710e-02 0.0000000000000000e+00  1.0392637574792412e+00 -7.6313278513392965e-02 0.0000000000000000e+00  1.0448891779423224e+00 -8.0221380138188511e-02 0.0000000000000000e+00  1.0511842125672357e+00 -8.3785987554974933e-02 0.0000000000000000e+00  1.0581078274496807e+00 -8.7056961463501670e-02 0.0000000000000000e+00  1.0655508321079470e+00 -8.9725109747891510e-02 0.0000000000000000e+00  1.0735529814469678e+00 -9.1936568313560119e-02 0.0000000000000000e+00  1.0817722312895635e+00 -9.3328533001614034e-02 0.0000000000000000e+00  1.0903974253898470e+00 -9.4140169441130808e-02 0.0000000000000000e+00  1.0991862405248831e+00 -9.4220078505147575e-02 0.0000000000000000e+00  1.1081404269574686e+00 -9.3310658387857848e-02 0.0000000000000000e+00  1.1168534461780384e+00 -9.1538658844437557e-02 0.0000000000000000e+00  1.1254312728544860e+00 -8.9077447295740866e-02 0.0000000000000000e+00  1.1337199908758766e+00 -8.5839966937177339e-02 0.0000000000000000e+00  1.1414980137338007e+00 -8.1831261618032572e-02 0.0000000000000000e+00  1.1488389412774489e+00 -7.7229540796452265e-02 0.0000000000000000e+00  1.1555639200132686e+00 -7.2096602788228825e-02 0.0000000000000000e+00  1.1617507628502737e+00 -6.6360898658829381e-02 0.0000000000000000e+00  1.1673171543385874e+00 -6.0402332832390042e-02 0.0000000000000000e+00  1.1722851713642926e+00 -5.4013744514949821e-02 0.0000000000000000e+00  1.1764835910848070e+00 -4.7282451445614132e-02 0.0000000000000000e+00  1.1801958360287013e+00 -4.0394477638058368e-02 0.0000000000000000e+00  1.1831227906320216e+00 -3.3368087647297096e-02 0.0000000000000000e+00  1.1854544969353560e+00 -2.6187852661451433e-02 0.0000000000000000e+00  1.1870892627581726e+00 -1.8936994837036186e-02 0.0000000000000000e+00  1.1880279109096885e+00 -1.1725883989635854e-02 0.0000000000000000e+00  1.1883609349671023e+00 -4.4204093922091195e-03 0.0000000000000000e+00  1.1879702308299276e+00 2.8798641040734510e-03 0.0000000000000000e+00  1.1869468539201926e+00 1.0047558249458721e-02 0.0000000000000000e+00  1.1852614790473943e+00 1.70617137