<?xml version="1.0"?>
<VTKFile type="UnstructuredGrid"  version="0.1"  >
<UnstructuredGrid>
<Piece  NumberOfPoints="10199" NumberOfCells="20110">
<Points>
<DataArray  type="Float64"  NumberOfComponents="3"  format="ascii">0 -5 0  8 -5 0  30 -5 0  40 -5 0  40 5 0  30 5 0  8 5 0  0 5 0  8 -2.5 0  15 -2.5 0  30 -2.5 0  30 2.5 0  15 2.5 0  8 2.5 0  10 0.5 0  10 -0.5 0  0 0 0  0.4210526315780956 -5 0  0.8421052631563433 -5 0  1.263157894734281 -5 0  1.684210526311999 -5 0  2.105263157889717 -5 0  2.526315789467435 -5 0  2.947368421045153 -5 0  3.368421052622872 -5 0  3.78947368420059 -5 0  4.210526315779479 -5 0  4.631578947359537 -5 0  5.052631578939595 -5 0  5.473684210519653 -5 0  5.89473684209971 -5 0  6.315789473679768 -5 0  6.736842105259826 -5 0  7.157894736839884 -5 0  7.578947368419942 -5 0  8.407407407405314 -5 0  8.814814814810628 -5 0  9.222222222215942 -5 0  9.629629629621256 -5 0  10.03703703702657 -5 0  10.44444444443188 -5 0  10.8518518518372 -5 0  11.25925925924251 -5 0  11.66666666664783 -5 0  12.07407407405314 -5 0  12.48148148145846 -5 0  12.88888888886377 -5 0  13.29629629626908 -5 0  13.7037037036744 -5 0  14.11111111107971 -5 0  14.51851851848502 -5 0  14.92592592589034 -5 0  15.33333333329565 -5 0  15.74074074070096 -5 0  16.14814814810754 -5 0  16.55555555551614 -5 0  16.96296296292474 -5 0  17.37037037033335 -5 0  17.77777777774195 -5 0  18.18518518515056 -5 0  18.59259259255916 -5 0  18.99999999996776 -5 0  19.40740740737636 -5 0  19.81481481478497 -5 0  20.22222222219357 -5 0  20.62962962960217 -5 0  21.03703703701077 -5 0  21.44444444441937 -5 0  21.85185185182797 -5 0  22.25925925923657 -5 0  22.66666666664518 -5 0  23.07407407405378 -5 0  23.48148148146238 -5 0  23.88888888887098 -5 0  24.29629629627958 -5 0  24.70370370368818 -5 0  25.11111111109678 -5 0  25.51851851850539 -5 0  25.92592592591399 -5 0  26.33333333332259 -5 0  26.74074074073119 -5 0  27.14814814813979 -5 0  27.55555555554839 -5 0  27.96296296295699 -5 0  28.3703703703656 -5 0  28.7777777777742 -5 0  29.1851851851828 -5 0  29.5925925925914 -5 0  30.41666666667852 -5 0  30.83333333335704 -5 0  31.25000000003556 -5 0  31.66666666671408 -5 0  32.08333333338936 -5 0  32.50000000005308 -5 0  32.9166666667168 -5 0  33.33333333338052 -5 0  33.75000000004424 -5 0  34.16666666670795 -5 0  34.58333333337167 -5 0  35.00000000003539 -5 0  35.41666666669911 -5 0  35.83333333336282 -5 0  36.25000000002654 -5 0  36.66666666669026 -5 0  37.08333333335398 -5 0  37.50000000001769 -5 0  37.91666666668141 -5 0  38.33333333334513 -5 0  38.75000000000885 -5 0  39.16666666667257 -5 0  39.58333333333628 -5 0  40 -4.583333333332821 0  40 -4.166666666665642 0  40 -3.74999999999855 0  40 -3.333333333333135 0  40 -2.916666666667806 0  40 -2.500000000002478 0  40 -2.083333333337148 0  40 -1.666666666671818 0  40 -1.250000000006488 0  40 -0.8333333333405228 0  40 -0.4166666666733416 0  40 -6.163070054299169e-12 0  40 0.4166666666610173 0  40 0.8333333333281976 0  40 1.249999999995378 0  40 1.666666666662558 0  40 2.083333333329739 0  40 2.499999999996919 0  40 2.916666666664099 0  40 3.33333333333128 0  40 3.74999999999846 0  40 4.166666666665641 0  40 4.583333333332821 0  39.58333333333628 5 0  39.16666666667256 5 0  38.75000000000885 5 0  38.33333333334513 5 0  37.91666666668141 5 0  37.50000000001769 5 0  37.08333333335398 5 0  36.66666666669025 5 0  36.25000000002654 5 0  35.83333333336282 5 0  35.41666666669911 5 0  35.00000000003539 5 0  34.58333333337167 5 0  34.16666666670795 5 0  33.75000000004424 5 0  33.33333333338052 5 0  32.9166666667168 5 0  32.50000000005308 5 0  32.08333333338936 5 0  31.66666666671408 5 0  31.25000000003556 5 0  30.83333333335704 5 0  30.41666666667852 5 0  29.59259259259259 5 0  29.18518518518519 5 0  28.77777777777778 5 0  28.37037037037037 5 0  27.96296296296296 5 0  27.55555555555556 5 0  27.14814814814815 5 0  26.74074074074074 5 0  26.33333333333333 5 0  25.92592592592593 5 0  25.51851851851852 5 0  25.11111111111111 5 0  24.7037037037037 5 0  24.2962962962963 5 0  23.88888888888889 5 0  23.48148148148148 5 0  23.07407407407408 5 0  22.66666666666667 5 0  22.25925925925926 5 0  21.85185185185185 5 0  21.44444444444445 5 0  21.03703703703704 5 0  20.62962962962963 5 0  20.22222222222222 5 0  19.81481481481482 5 0  19.40740740740741 5 0  19 5 0  18.5925925925926 5 0  18.18518518518519 5 0  17.77777777777778 5 0  17.37037037037037 5 0  16.96296296296296 5 0  16.55555555555556 5 0  16.14814814814815 5 0  15.74074074074074 5 0  15.33333333333333 5 0  14.92592592592593 5 0  14.51851851851852 5 0  14.11111111111111 5 0  13.70370370370371 5 0  13.2962962962963 5 0  12.88888888888889 5 0  12.48148148148148 5 0  12.07407407407408 5 0  11.66666666666667 5 0  11.25925925925926 5 0  10.85185185185185 5 0  10.44444444444445 5 0  10.03703703703704 5 0  9.629629629629633 5 0  9.222222222222221 5 0  8.814814814814817 5 0  8.407407407407408 5 0  7.5789473684193 5 0  7.157894736838599 5 0  6.73684210526082 5 0  6.315789473684795 5 0  5.894736842108769 5 0  5.473684210532742 5 0  5.052631578956715 5 0  4.631578947380689 5 0  4.210526315804662 5 0  3.789473684226299 5 0  3.368421052645599 5 0  2.947368421064898 5 0  2.526315789484198 5 0  2.105263157903499 5 0  1.6842105263228 5 0  1.2631578947421 5 0  0.8421052631613994 5 0  0.4210526315806993 5 0  0 4.545454545454545 0  0 4.09090909090909 0  0 3.636363636363634 0  0 3.18181818181818 0  0 2.727272727272726 0  0 2.272727272727271 0  0 1.818181818181817 0  0 1.363636363636363 0  0 0.9090909090909092 0  0 0.454545454545455 0  0 -0.4545454545450807 0  0 -0.9090909090895867 0  0 -1.363636363633713 0  0 -1.818181818177841 0  0 -2.272727272723127 0  0 -2.727272727269273 0  0 -3.181818181815419 0  0 -3.636363636361564 0  0 -4.090909090907709 0  0 -4.545454545453855 0  8 -4.499999999999999 0  8 -3.999999999999999 0  8 -3.499999999999999 0  8 -3 0  8.137254901963859 -2.5 0  8.274509803926303 -2.5 0  8.411764705886863 -2.5 0  8.549019607849138 -2.5 0  8.686274509809513 -2.5 0  8.82352941176989 -2.5 0  8.960784313730265 -2.5 0  9.098039215690642 -2.5 0  9.235294117651017 -2.5 0  9.372549019611395 -2.5 0  9.50980392157177 -2.5 0  9.647058823532147 -2.5 0  9.784313725492522 -2.5 0  9.921568627452897 -2.5 0  10.05882352941327 -2.5 0  10.19607843137365 -2.5 0  10.33333333333402 -2.5 0  10.4705882352944 -2.5 0  10.60784313725478 -2.5 0  10.74509803921515 -2.5 0  10.88235294117553 -2.5 0  11.0196078431359 -2.5 0  11.15686274509628 -2.5 0  11.29411764705665 -2.5 0  11.43137254901703 -2.5 0  11.56862745097915 -2.5 0  11.70588235294301 -2.5 0  11.84313725490686 -2.5 0  11.98039215687072 -2.5 0  12.11764705883209 -2.5 0  12.25490196079247 -2.5 0  12.39215686275285 -2.5 0  12.52941176471322 -2.5 0  12.6666666666736 -2.5 0  12.80392156863397 -2.5 0  12.94117647059435 -2.5 0  13.07843137255473 -2.5 0  13.2156862745151 -2.5 0  13.35294117647548 -2.5 0  13.49019607843586 -2.5 0  13.62745098039623 -2.5 0  13.76470588235661 -2.5 0  13.90196078431699 -2.5 0  14.03921568627736 -2.5 0  14.17647058823774 -2.5 0  14.31372549019812 -2.5 0  14.45098039215849 -2.5 0  14.58823529411887 -2.5 0  14.72549019607925 -2.5 0  14.86274509803962 -2.5 0  15.20270270270254 -2.5 0  15.40540540540509 -2.5 0  15.60810810810763 -2.5 0  15.81081081081017 -2.5 0  16.01351351351227 -2.5 0  16.21621621621265 -2.5 0  16.41891891891279 -2.5 0  16.62162162161294 -2.5 0  16.82432432431308 -2.5 0  17.02702702701322 -2.5 0  17.22972972971337 -2.5 0  17.43243243241351 -2.5 0  17.63513513511365 -2.5 0  17.83783783781379 -2.5 0  18.04054054051394 -2.5 0  18.24324324321408 -2.5 0  18.44594594591422 -2.5 0  18.64864864861436 -2.5 0  18.85135135131451 -2.5 0  19.05405405401465 -2.5 0  19.25675675671479 -2.5 0  19.45945945941494 -2.5 0  19.66216216211508 -2.5 0  19.86486486481522 -2.5 0  20.06756756751536 -2.5 0  20.27027027021551 -2.5 0  20.47297297291565 -2.5 0  20.6756756756158 -2.5 0  20.87837837831594 -2.5 0  21.08108108101608 -2.5 0  21.28378378371622 -2.5 0  21.48648648641637 -2.5 0  21.68918918911651 -2.5 0  21.89189189181666 -2.5 0  22.0945945945168 -2.5 0  22.29729729721694 -2.5 0  22.49999999991778 -2.5 0  22.70270270262203 -2.5 0  22.90540540532697 -2.5 0  23.10810810803191 -2.5 0  23.31081081073686 -2.5 0  23.5135135134418 -2.5 0  23.71621621614674 -2.5 0  23.91891891885169 -2.5 0  24.12162162155663 -2.5 0  24.32432432426158 -2.5 0  24.52702702696652 -2.5 0  24.72972972967146 -2.5 0  24.93243243237641 -2.5 0  25.13513513508135 -2.5 0  25.3378378377863 -2.5 0  25.54054054049124 -2.5 0  25.74324324319618 -2.5 0  25.94594594590112 -2.5 0  26.14864864860607 -2.5 0  26.35135135131101 -2.5 0  26.55405405401596 -2.5 0  26.7567567567209 -2.5 0  26.95945945942584 -2.5 0  27.16216216213079 -2.5 0  27.36486486483573 -2.5 0  27.56756756754068 -2.5 0  27.77027027024562 -2.5 0  27.97297297295056 -2.5 0  28.1756756756555 -2.5 0  28.37837837836045 -2.5 0  28.5810810810654 -2.5 0  28.78378378377034 -2.5 0  28.98648648647528 -2.5 0  29.18918918918023 -2.5 0  29.39189189188517 -2.5 0  29.59459459459011 -2.5 0  29.79729729729506 -2.5 0  30 -3.000000000000001 0  30 -3.500000000000001 0  30 -4.000000000000001 0  30 -4.5 0  8 4.499999999999999 0  8 3.999999999999999 0  8 3.499999999999999 0  8 3 0  8.137254901963859 2.5 0  8.274509803926303 2.5 0  8.411764705886863 2.5 0  8.549019607849138 2.5 0  8.686274509809513 2.5 0  8.82352941176989 2.5 0  8.960784313730265 2.5 0  9.098039215690642 2.5 0  9.235294117651017 2.5 0  9.372549019611395 2.5 0  9.50980392157177 2.5 0  9.647058823532147 2.5 0  9.784313725492522 2.5 0  9.921568627452897 2.5 0  10.05882352941327 2.5 0  10.19607843137365 2.5 0  10.33333333333402 2.5 0  10.4705882352944 2.5 0  10.60784313725478 2.5 0  10.74509803921515 2.5 0  10.88235294117553 2.5 0  11.0196078431359 2.5 0  11.15686274509628 2.5 0  11.29411764705665 2.5 0  11.43137254901703 2.5 0  11.56862745097915 2.5 0  11.70588235294301 2.5 0  11.84313725490686 2.5 0  11.98039215687072 2.5 0  12.11764705883209 2.5 0  12.25490196079247 2.5 0  1
[...]
<PointData  Vectors="f_17"> 
<DataArray  type="Float64"  Name="f_17"  NumberOfComponents="3" format="ascii">1.0000001320317398e+00 0.0000000000000000e+00 0.0000000000000000e+00  1.0419146721857375e+00 0.0000000000000000e+00 0.0000000000000000e+00  1.0623721162557518e+00 0.0000000000000000e+00 0.0000000000000000e+00  1.0917937802803828e+00 0.0000000000000000e+00 0.0000000000000000e+00  1.0757552802143164e+00 0.0000000000000000e+00 0.0000000000000000e+00  1.0517384255074784e+00 0.0000000000000000e+00 0.0000000000000000e+00  1.0390203357390178e+00 0.0000000000000000e+00 0.0000000000000000e+00  1.0000001320317398e+00 0.0000000000000000e+00 0.0000000000000000e+00  1.0254655904220207e+00 -5.1087007616024034e-02 0.0000000000000000e+00  1.1273664954981457e+00 5.4946447911074510e-02 0.0000000000000000e+00  1.1447732853698138e+00 -5.8637640969910004e-02 0.0000000000000000e+00  1.0011840462713730e+00 -5.0947296408746540e-02 0.0000000000000000e+00  9.8683455183136037e-01 -2.6865530440958844e-03 0.0000000000000000e+00  1.0173544395589857e+00 5.0605511730260420e-02 0.0000000000000000e+00  0.0000000000000000e+00 0.0000000000000000e+00 0.0000000000000000e+00  0.0000000000000000e+00 0.0000000000000000e+00 0.0000000000000000e+00  1.0000001320317398e+00 0.0000000000000000e+00 0.0000000000000000e+00  9.9931196184723237e-01 0.0000000000000000e+00 0.0000000000000000e+00  9.9882361173807177e-01 0.0000000000000000e+00 0.0000000000000000e+00  1.0009555768059597e+00 0.0000000000000000e+00 0.0000000000000000e+00  1.0008946835670542e+00 0.0000000000000000e+00 0.0000000000000000e+00  1.0020064386134862e+00 0.0000000000000000e+00 0.0000000000000000e+00  1.0024653260244492e+00 0.0000000000000000e+00 0.0000000000000000e+00  1.0028818458761297e+00 0.0000000000000000e+00 0.0000000000000000e+00  1.0037912560549522e+00 0.0000000000000000e+00 0.0000000000000000e+00  1.0050824688113611e+00 0.0000000000000000e+00 0.0000000000000000e+00  1.0062238716383931e+00 0.0000000000000000e+00 0.0000000000000000e+00  1.0077100708278373e+00 0.0000000000000000e+00 0.0000000000000000e+00  1.0099098767143277e+00 0.0000000000000000e+00 0.0000000000000000e+00  1.0122357993799440e+00 0.0000000000000000e+00 0.0000000000000000e+00  1.0161471063440568e+00 0.0000000000000000e+00 0.0000000000000000e+00  1.0178374173974392e+00 0.0000000000000000e+00 0.0000000000000000e+00  1.0223401306961191e+00 0.0000000000000000e+00 0.0000000000000000e+00  1.0289865743573368e+00 0.0000000000000000e+00 0.0000000000000000e+00  1.0342574503335109e+00 0.0000000000000000e+00 0.0000000000000000e+00  1.0494725454915403e+00 0.0000000000000000e+00 0.0000000000000000e+00  1.0572737701561066e+00 0.0000000000000000e+00 0.0000000000000000e+00  1.0642469845521378e+00 0.0000000000000000e+00 0.0000000000000000e+00  1.0713614162808838e+00 0.0000000000000000e+00 0.0000000000000000e+00  1.0767388813799808e+00 0.0000000000000000e+00 0.0000000000000000e+00  1.0811549813600432e+00 0.0000000000000000e+00 0.0000000000000000e+00  1.0850509965932145e+00 0.0000000000000000e+00 0.0000000000000000e+00  1.0865052225342577e+00 0.0000000000000000e+00 0.0000000000000000e+00  1.0874406569519102e+00 0.0000000000000000e+00 0.0000000000000000e+00  1.0874069492270748e+00 0.0000000000000000e+00 0.0000000000000000e+00  1.0873553901706288e+00 0.0000000000000000e+00 0.0000000000000000e+00  1.0860878801553482e+00 0.0000000000000000e+00 0.0000000000000000e+00  1.0855710565551249e+00 0.0000000000000000e+00 0.0000000000000000e+00  1.0844097884843926e+00 0.0000000000000000e+00 0.0000000000000000e+00  1.0821677689816738e+00 0.0000000000000000e+00 0.0000000000000000e+00  1.0790792155067552e+00 0.0000000000000000e+00 0.0000000000000000e+00  1.0744732821150884e+00 0.0000000000000000e+00 0.0000000000000000e+00  1.0686329354957218e+00 0.0000000000000000e+00 0.0000000000000000e+00  1.0615340759452843e+00 0.0000000000000000e+00 0.0000000000000000e+00  1.0540048267603515e+00 0.0000000000000000e+00 0.0000000000000000e+00  1.0481506963267475e+00 0.0000000000000000e+00 0.0000000000000000e+00  1.0442483385352885e+00 0.0000000000000000e+00 0.0000000000000000e+00  1.0412224611128476e+00 0.0000000000000000e+00 0.0000000000000000e+00  1.0415668445800241e+00 0.0000000000000000e+00 0.0000000000000000e+00  1.0440965204204664e+00 0.0000000000000000e+00 0.0000000000000000e+00  1.0482940646465337e+00 0.0000000000000000e+00 0.0000000000000000e+00  1.0537690644743514e+00 0.0000000000000000e+00 0.0000000000000000e+00  1.0584106594684535e+00 0.0000000000000000e+00 0.0000000000000000e+00  1.0616142265092889e+00 0.0000000000000000e+00 0.0000000000000000e+00  1.0630050508932536e+00 0.0000000000000000e+00 0.0000000000000000e+00  1.0610856247905560e+00 0.0000000000000000e+00 0.0000000000000000e+00  1.0570772412805429e+00 0.0000000000000000e+00 0.0000000000000000e+00  1.0532735970630682e+00 0.0000000000000000e+00 0.0000000000000000e+00  1.0483411436200709e+00 0.0000000000000000e+00 0.0000000000000000e+00  1.0441650414039141e+00 0.0000000000000000e+00 0.0000000000000000e+00  1.0427765137274252e+00 0.0000000000000000e+00 0.0000000000000000e+00  1.0426775825721635e+00 0.0000000000000000e+00 0.0000000000000000e+00  1.0445785541905228e+00 0.0000000000000000e+00 0.0000000000000000e+00  1.0497232576094215e+00 0.0000000000000000e+00 0.0000000000000000e+00  1.0546604591471809e+00 0.0000000000000000e+00 0.0000000000000000e+00  1.0591886852897334e+00 0.0000000000000000e+00 0.0000000000000000e+00  1.0632228804410988e+00 0.0000000000000000e+00 0.0000000000000000e+00  1.0645063584379704e+00 0.0000000000000000e+00 0.0000000000000000e+00  1.0634927135866614e+00 0.0000000000000000e+00 0.0000000000000000e+00  1.0611822545007796e+00 0.0000000000000000e+00 0.0000000000000000e+00  1.0568820947626922e+00 0.0000000000000000e+00 0.0000000000000000e+00  1.0522444720542008e+00 0.0000000000000000e+00 0.0000000000000000e+00  1.0509516275788753e+00 0.0000000000000000e+00 0.0000000000000000e+00  1.0492852510672139e+00 0.0000000000000000e+00 0.0000000000000000e+00  1.0479168880891032e+00 0.0000000000000000e+00 0.0000000000000000e+00  1.0495755621638740e+00 0.0000000000000000e+00 0.0000000000000000e+00  1.0540672599926602e+00 0.0000000000000000e+00 0.0000000000000000e+00  1.0583203557963428e+00 0.0000000000000000e+00 0.0000000000000000e+00  1.0649404456224738e+00 0.0000000000000000e+00 0.0000000000000000e+00  1.0647533687639654e+00 0.0000000000000000e+00 0.0000000000000000e+00  1.0625192369364695e+00 0.0000000000000000e+00 0.0000000000000000e+00  1.0597758495683796e+00 0.0000000000000000e+00 0.0000000000000000e+00  1.0561801075207318e+00 0.0000000000000000e+00 0.0000000000000000e+00  1.0526810155653727e+00 0.0000000000000000e+00 0.0000000000000000e+00  1.0504699693831998e+00 0.0000000000000000e+00 0.0000000000000000e+00  1.0505326211975574e+00 0.0000000000000000e+00 0.0000000000000000e+00  1.0525577501401053e+00 0.0000000000000000e+00 0.0000000000000000e+00  1.0557166059267740e+00 0.0000000000000000e+00 0.0000000000000000e+00  1.0602288640304165e+00 0.0000000000000000e+00 0.0000000000000000e+00  1.0643315754819431e+00 0.0000000000000000e+00 0.0000000000000000e+00  1.0671074856394211e+00 0.0000000000000000e+00 0.0000000000000000e+00  1.0687861289303184e+00 0.0000000000000000e+00 0.0000000000000000e+00  1.0685956983257807e+00 0.0000000000000000e+00 0.0000000000000000e+00  1.0675212847192326e+00 0.0000000000000000e+00 0.0000000000000000e+00  1.0649073111059568e+00 0.0000000000000000e+00 0.0000000000000000e+00  1.0631485934212113e+00 0.0000000000000000e+00 0.0000000000000000e+00  1.0624379437022140e+00 0.0000000000000000e+00 0.0000000000000000e+00  1.0644195074144751e+00 0.0000000000000000e+00 0.0000000000000000e+00  1.0683339534881275e+00 0.0000000000000000e+00 0.0000000000000000e+00  1.0753461056316442e+00 0.0000000000000000e+00 0.0000000000000000e+00  1.0829868721207556e+00 0.0000000000000000e+00 0.0000000000000000e+00  1.0930209402969471e+00 -8.5196304360501615e-03 0.0000000000000000e+00  1.0959665568132455e+00 -1.8846030962339781e-02 0.0000000000000000e+00  1.1011787712890317e+00 -3.2977745207781892e-02 0.0000000000000000e+00  1.1081906409152309e+00 -5.4167417171875946e-02 0.0000000000000000e+00  1.1212217462959682e+00 -8.9036200348101016e-02 0.0000000000000000e+00  1.1321315779162251e+00 -1.3738210557347172e-01 0.0000000000000000e+00  1.1179035726614979e+00 -1.9781711345949712e-01 0.0000000000000000e+00  1.0558941990798916e+00 -2.5026607352393554e-01 0.0000000000000000e+00  9.4732446582534802e-01 -2.7676073886933233e-01 0.0000000000000000e+00  8.3140606547541640e-01 -2.6931979063375711e-01 0.0000000000000000e+00  7.5064474620010879e-01 -2.4713786084595396e-01 0.0000000000000000e+00  7.2743579991763740e-01 -2.2475500337282356e-01 0.0000000000000000e+00  7.5415224017973970e-01 -2.0609699344235982e-01 0.0000000000000000e+00  8.1720549319803315e-01 -1.8131045609803753e-01 0.0000000000000000e+00  8.9317601360178767e-01 -1.5327238080675470e-01 0.0000000000000000e+00  9.6224118525739399e-01 -1.1723059238286321e-01 0.0000000000000000e+00  1.0111997156256720e+00 -8.3200874859883339e-02 0.0000000000000000e+00  1.0420084522126294e+00 -5.2077776275773015e-02 0.0000000000000000e+00  1.0588357149915399e+00 -2.9969783244442078e-02 0.0000000000000000e+00  1.0686944432152685e+00 -1.6185636980747670e-02 0.0000000000000000e+00  1.0733067470594515e+00 -8.2841677824299787e-03 0.0000000000000000e+00  1.0758585884958156e+00 -3.9964131566514582e-03 0.0000000000000000e+00  1.0761698705467777e+00 -1.5941573777652933e-03 0.0000000000000000e+00  1.0772191870976622e+00 0.0000000000000000e+00 0.0000000000000000e+00  1.0788036805069103e+00 0.0000000000000000e+00 0.0000000000000000e+00  1.0795259641937041e+00 0.0000000000000000e+00 0.0000000000000000e+00  1.0789437817421030e+00 0.0000000000000000e+00 0.0000000000000000e+00  1.0758825440752882e+00 0.0000000000000000e+00 0.0000000000000000e+00  1.0717049195384123e+00 0.0000000000000000e+00 0.0000000000000000e+00  1.0667895726410890e+00 0.0000000000000000e+00 0.0000000000000000e+00  1.0620197304757388e+00 0.0000000000000000e+00 0.0000000000000000e+00  1.0577061438107278e+00 0.0000000000000000e+00 0.0000000000000000e+00  1.0554395331808035e+00 0.0000000000000000e+00 0.0000000000000000e+00  1.0553211952694022e+00 0.0000000000000000e+00 0.0000000000000000e+00  1.0568828949148559e+00 0.0000000000000000e+00 0.0000000000000000e+00  1.0598241712715839e+00 0.0000000000000000e+00 0.0000000000000000e+00  1.0636291333459167e+00 0.0000000000000000e+00 0.0000000000000000e+00  1.0659701641828641e+00 0.0000000000000000e+00 0.0000000000000000e+00  1.0676809735221455e+00 0.0000000000000000e+00 0.0000000000000000e+00  1.0661919277405427e+00 0.0000000000000000e+00 0.0000000000000000e+00  1.0634437383993376e+00 0.0000000000000000e+00 0.0000000000000000e+00  1.0592843924442827e+00 0.0000000000000000e+00 0.0000000000000000e+00  1.0553371579611264e+00 0.0000000000000000e+00 0.0000000000000000e+00  1.0519279101016068e+00 0.0000000000000000e+00 0.0000000000000000e+00  1.0495451653121859e+00 0.0000000000000000e+00 0.0000000000000000e+00  1.0497498146330435e+00 0.0000000000000000e+00 0.0000000000000000e+00  1.0543311297770970e+00 0.0000000000000000e+00 0.0000000000000000e+00  1.0584312724072324e+00 0.0000000000000000e+00 0.0000000000000000e+00  1.0609568530359259e+00 0.0000000000000000e+00 0.0000000000000000e+00  1.0637023537316017e+00 0.0000000000000000e+00 0.0000000000000000e+00  1.0653349564519377e+00 0.0000000000000000e+00 0.0000000000000000e+00  1.0636288619930037e+00 0.0000000000000000e+00 0.0000000000000000e+00  1.0583160547076893e+00 0.0000000000000000e+00 0.0000000000000000e+00  1.0545023056986704e+00 0.0000000000000000e+00 0.0000000000000000e+00  1.0506329528095903e+00 0.0000000000000000e+00 0.0000000000000000e+00  1.0470089079477922e+00 0.0000000000000000e+00 0.0000000000000000e+00  1.0458258879211884e+00 0.0000000000000000e+00 0.0000000000000000e+00  1.0467197454217669e+00 0.0000000000000000e+00 0.0000000000000000e+00  1.0487898010012553e+00 0.0000000000000000e+00 0.0000000000000000e+00  1.0528904684252292e+00 0.0000000000000000e+00 0.0000000000000000e+00  1.0572558873073454e+00 0.0000000000000000e+00 0.0000000000000000e+00  1.0600474387784917e+00 0.0000000000000000e+00 0.0000000000000000e+00  1.0623463757310538e+00 0.0000000000000000e+00 0.0000000000000000e+00  1.0622336941960400e+00 0.0000000000000000e+00 0.0000000000000000e+00  1.0588677127481636e+00 0.0000000000000000e+00 0.0000000000000000e+00  1.0545912318110884e+00 0.0000000000000000e+00 0.0000000000000000e+00  1.0492423849871790e+00 0.0000000000000000e+00 0.0000000000000000e+00  1.0430494237304957e+00 0.0000000000000000e+00 0.0000000000000000e+00  1.0398026170069365e+00 0.0000000000000000e+00 0.0000000000000000e+00  1.0385111129987024e+00 0.0000000000000000e+00 0.0000000000000000e+00  1.0389361482189539e+00 0.0000000000000000e+00 0.0000000000000000e+00  1.0421076828257603e+00 0.0000000000000000e+00 0.0000000000000000e+00  1.0470599749538836e+00 0.0000000000000000e+00 0.0000000000000000e+00  1.0524788333352619e+00 0.0000000000000000e+00 0.0000000000000000e+00  1.0580962751062546e+00 0.0000000000000000e+00 0.0000000000000000e+00  1.0625376770366037e+00 0.0000000000000000e+00 0.0000000000000000e+00  1.0648377022392621e+00 0.0000000000000000e+00 0.0000000000000000e+00  1.0657645137707203e+00 0.0000000000000000e+00 0.0000000000000000e+00  1.0637849001267854e+00 0.0000000000000000e+00 0.0000000000000000e+00  1.0611103704663851e+00 0.0000000000000000e+00 0.0000000000000000e+00  1.0593197197247077e+00 0.0000000000000000e+00 0.0000000000000000e+00  1.0583491158891125e+00 0.0000000000000000e+00 0.0000000000000000e+00  1.0586294323896628e+00 0.0000000000000000e+00 0.0000000000000000e+00  1.0606443539796606e+00 0.0000000000000000e+00 0.0000000000000000e+00  1.0650166922813957e+00 0.0000000000000000e+00 0.0000000000000000e+00  1.0716851084911510e+00 0.0000000000000000e+00 0.0000000000000000e+00  1.0784084751971332e+00 0.0000000000000000e+00 0.0000000000000000e+00  1.0847495625410368e+00 0.0000000000000000e+00 0.0000000000000000e+00  1.0916048554727726e+00 0.0000000000000000e+00 0.0000000000000000e+00  1.0950595211088656e+00 0.0000000000000000e+00 0.0000000000000000e+00  1.0972625734794830e+00 0.0000000000000000e+00 0.0000000000000000e+00  1.0966875534881604e+00 0.0000000000000000e+00 0.0000000000000000e+00  1.0932289368814390e+00 0.0000000000000000e+00 0.0000000000000000e+00  1.0878133965876602e+00 0.0000000000000000e+00 0.0000000000000000e+00  1.0810741696094446e+00 0.0000000000000000e+00 0.0000000000000000e+00  1.0732753002418050e+00 0.0000000000000000e+00 0.0000000000000000e+00  1.0641017010693365e+00 0.0000000000000000e+00 0.0000000000000000e+00  1.0558542584787376e+00 0.0000000000000000e+00 0.0000000000000000e+00  1.0471605578097212e+00 0.0000000000000000e+00 0.0000000000000000e+00  1.0312807766012100e+00 0.0000000000000000e+00 0.0000000000000000e+00  1.0246790191043522e+00 0.0000000000000000e+00 0.0000000000000000e+00  1.0195108293453192e+00 0.0000000000000000e+00 0.0000000000000000e+00  1.0149222621823821e+00 0.0000000000000000e+00 0.0000000000000000e+00  1.0111755489996814e+00 0.0000000000000000e+00 0.0000000000000000e+00  1.0082368423417067e+00 0.0000000000000000e+00 0.0000000000000000e+00  1.0060184821078131e+00 0.0000000000000000e+00 0.0000000000000000e+00  1.0038617869191639e+00 0.0000000000000000e+00 0.0000000000000000e+00  1.0024263152289692e+00 0.0000000000000000e+00 0.0000000000000000e+00  1.0014547458721395e+00 0.0000000000000000e+00 0.0000000000000000e+00  1.0003829921640868e+00 0.0000000000000000e+00 0.0000000000000000e+00  1.0003750398645230e+00 0.0000000000000000e+00 0.0000000000000000e+00  9.9950212375571279e-01 0.0000000000000000e+00 0.0000000000000000e+00  9.9966442784011467e-01 0.0000000000000000e+00 0.0000000000000000e+00  9.9945585775946366e-01 0.0000000000000000e+00 0.0000000000000000e+00  1.0002947017359871e+00 0.0000000000000000e+00 0.0000000000000000e+00  1.0001688126611996e+00 0.0000000000000000e+00 0.0000000000000000e+00  9.9978648134160741e-01 0.0000000000000000e+00 0.0000000000000000e+00  1.0000001320317398e+00 0.0000000000000000e+00 0.0000000000000000e+00  1.0000001320317398e+00 0.0000000000000000e+00 0.0000000000000000e+00  1.0000001320317398e+00 0.0000000000000000e+00 0.0000000000000000e+00  1.0000001320317398e+00 0.0000000000000000e+00 0.0000000000000000e+00  1.0000001320317398e+00 0.0000000000000000e+00 0.0000000000000000e+00  1.0000001320317398e+00 0.0000000000000000e+00 0.0000000000000000e+00  1.0000001320317398e+00 0.0000000000000000e+00 0.0000000000000000e+00  1.0000001320317398e+00 0.0000000000000000e+00 0.0000000000000000e+00  1.0000001320317398e+00 0.0000000000000000e+00 0.0000000000000000e+00  1.0000001320317398e+00 0.0000000000000000e+00 0.0000000000000000e+00  1.0000001320317398e+00 0.0000000000000000e+00 0.0000000000000000e+00  1.0000001320317398e+00 0.0000000000000000e+00 0.0000000000000000e+00  1.0000001320317398e+00 0.0000000000000000e+00 0.0000000000000000e+00  1.0000001320317398e+00 0.0000000000000000e+00 0.0000000000000000e+00  1.0000001320317398e+00 0.0000000000000000e+00 0.0000000000000000e+00  1.0000001320317398e+00 0.0000000000000000e+00 0.0000000000000000e+00  1.0000001320317398e+00 0.0000000000000000e+00 0.0000000000000000e+00  1.0000001320317398e+00 0.0000000000000000e+00 0.0000000000000000e+00  1.0000001320317398e+00 0.0000000000000000e+00 0.0000000000000000e+00  1.0000001320317398e+00 0.0000000000000000e+00 0.0000000000000000e+00  1.0414332285021117e+00 -8.9427508133135547e-03 0.0000000000000000e+00  1.0388885252538134e+00 -1.8171760897251872e-02 0.0000000000000000e+00  1.0373881279438277e+00 -2.8470346654862737e-02 0.0000000000000000e+00  1.0327267463768957e+00 -3.9410985316366984e-02 0.0000000000000000e+00  1.0283950515589664e+00 -5.4388553820044837e-02 0.0000000000000000e+00  1.0331455498664459e+00 -5.7260963781444067e-02 0.0000000000000000e+00  1.0374288389212054e+00 -6.0134550315997827e-02 0.0000000000000000e+00  1.0427461605069295e+00 -6.2585696523833750e-02 0.0000000000000000e+00  1.0482607896214431e+00 -6.4792163721717255e-02 0.0000000000000000e+00  1.0543576892544828e+00 -6.6446428826364548e-02 0.0000000000000000e+00  1.0609624943599221e+00 -6.7638534380250415e-02 0.0000000000000000e+00  1.0678877334032331e+00 -6.8035802985270066e-02 0.0000000000000000e+00  1.0752245906685465e+00 -6.7746919501110364e-02 0.0000000000000000e+00  1.0824818586578422e+00 -6.6434098235677724e-02 0.0000000000000000e+00  1.0898863866151653e+00 -6.4374784335276408e-02 0.0000000000000000e+00  1.0970490759603491e+00 -6.1472563293832286e-02 0.0000000000000000e+00  1.1040529742130734e+00 -5.7385313369063648e-02 0.0000000000000000e+00  1.1103402055106772e+00 -5.2293199592871466e-02 0.0000000000000000e+00  1.1159470377777547e+00 -4.6543992356858598e-02 0.0000000000000000e+00  1.1207063234217265e+00 -4.0037961812218192e-02 0.0000000000000000e+00  1.1243662633651439e+00 -3.2927105440610761e-02 0.0000000000000000e+00  1.1268698335185308e+00 -2.5417683364276619e-02 0.0000000000000000e+00  1.1281954197356261e+00 -1.7807211080809852e-02 0.0000000000000000e+00  1.1282643611911727e+00 -9.9973482222816892e-03 0.0000000000000000e+00  1.1271027595805494e+00 -2.7576475573025017e-03 0.0000000000000000e+00  1.1247486161234224e+00 4.3480230158948205e-03 0.0000000000000000e+00  1.1211588762125564e+00 1.0792766058337738e-02 0.0000000000000000e+00  1.1167646037721737e+00 1.6202255820923619e-02 0.0000000000000000e+00  1.1114368052233325e+00 2.0511790455276489e-02 0.0000000000000000e+00  1.1055169619764573e+00 2.3630192680763846e-02 0.0000000000000000e+00  1.0992074582614160e+00 2.5513538392666717e-02 0.0000000000000000e+00  1.0928094170254024e+00 2.5876534517733842e-02 0.0000000000000000e+00  1.0864843480043254e+00 2.4921638741851059e-02 0.0000000000000000e+00  1.0806404756408476e+00 2.2707426729324180e-02 0.0000000000000000e+00  1.0755744355633174e+00 1.9133446015825999e-02 0.0000000000000000e+00  1.0714262145708606e+00 1.45499