<?xml version="1.0"?>
<VTKFile type="UnstructuredGrid"  version="0.1"  >
<UnstructuredGrid>
<Piece  NumberOfPoints="10199" NumberOfCells="20110">
<Points>
<DataArray  type="Float64"  NumberOfComponents="3"  format="ascii">0 -5 0  8 -5 0  30 -5 0  40 -5 0  40 5 0  30 5 0  8 5 0  0 5 0  8 -2.5 0  15 -2.5 0  30 -2.5 0  30 2.5 0  15 2.5 0  8 2.5 0  10 0.5 0  10 -0.5 0  0 0 0  0.4210526315780956 -5 0  0.8421052631563433 -5 0  1.263157894734281 -5 0  1.684210526311999 -5 0  2.105263157889717 -5 0  2.526315789467435 -5 0  2.947368421045153 -5 0  3.368421052622872 -5 0  3.78947368420059 -5 0  4.210526315779479 -5 0  4.631578947359537 -5 0  5.052631578939595 -5 0  5.473684210519653 -5 0  5.89473684209971 -5 0  6.315789473679768 -5 0  6.736842105259826 -5 0  7.157894736839884 -5 0  7.578947368419942 -5 0  8.407407407405314 -5 0  8.814814814810628 -5 0  9.222222222215942 -5 0  9.629629629621256 -5 0  10.03703703702657 -5 0  10.44444444443188 -5 0  10.8518518518372 -5 0  11.25925925924251 -5 0  11.66666666664783 -5 0  12.07407407405314 -5 0  12.48148148145846 -5 0  12.88888888886377 -5 0  13.29629629626908 -5 0  13.7037037036744 -5 0  14.11111111107971 -5 0  14.51851851848502 -5 0  14.92592592589034 -5 0  15.33333333329565 -5 0  15.74074074070096 -5 0  16.14814814810754 -5 0  16.55555555551614 -5 0  16.96296296292474 -5 0  17.37037037033335 -5 0  17.77777777774195 -5 0  18.18518518515056 -5 0  18.59259259255916 -5 0  18.99999999996776 -5 0  19.40740740737636 -5 0  19.81481481478497 -5 0  20.22222222219357 -5 0  20.62962962960217 -5 0  21.03703703701077 -5 0  21.44444444441937 -5 0  21.85185185182797 -5 0  22.25925925923657 -5 0  22.66666666664518 -5 0  23.07407407405378 -5 0  23.48148148146238 -5 0  23.88888888887098 -5 0  24.29629629627958 -5 0  24.70370370368818 -5 0  25.11111111109678 -5 0  25.51851851850539 -5 0  25.92592592591399 -5 0  26.33333333332259 -5 0  26.74074074073119 -5 0  27.14814814813979 -5 0  27.55555555554839 -5 0  27.96296296295699 -5 0  28.3703703703656 -5 0  28.7777777777742 -5 0  29.1851851851828 -5 0  29.5925925925914 -5 0  30.41666666667852 -5 0  30.83333333335704 -5 0  31.25000000003556 -5 0  31.66666666671408 -5 0  32.08333333338936 -5 0  32.50000000005308 -5 0  32.9166666667168 -5 0  33.33333333338052 -5 0  33.75000000004424 -5 0  34.16666666670795 -5 0  34.58333333337167 -5 0  35.00000000003539 -5 0  35.41666666669911 -5 0  35.83333333336282 -5 0  36.25000000002654 -5 0  36.66666666669026 -5 0  37.08333333335398 -5 0  37.50000000001769 -5 0  37.91666666668141 -5 0  38.33333333334513 -5 0  38.75000000000885 -5 0  39.16666666667257 -5 0  39.58333333333628 -5 0  40 -4.583333333332821 0  40 -4.166666666665642 0  40 -3.74999999999855 0  40 -3.333333333333135 0  40 -2.916666666667806 0  40 -2.500000000002478 0  40 -2.083333333337148 0  40 -1.666666666671818 0  40 -1.250000000006488 0  40 -0.8333333333405228 0  40 -0.4166666666733416 0  40 -6.163070054299169e-12 0  40 0.4166666666610173 0  40 0.8333333333281976 0  40 1.249999999995378 0  40 1.666666666662558 0  40 2.083333333329739 0  40 2.499999999996919 0  40 2.916666666664099 0  40 3.33333333333128 0  40 3.74999999999846 0  40 4.166666666665641 0  40 4.583333333332821 0  39.58333333333628 5 0  39.16666666667256 5 0  38.75000000000885 5 0  38.33333333334513 5 0  37.91666666668141 5 0  37.50000000001769 5 0  37.08333333335398 5 0  36.66666666669025 5 0  36.25000000002654 5 0  35.83333333336282 5 0  35.41666666669911 5 0  35.00000000003539 5 0  34.58333333337167 5 0  34.16666666670795 5 0  33.75000000004424 5 0  33.33333333338052 5 0  32.9166666667168 5 0  32.50000000005308 5 0  32.08333333338936 5 0  31.66666666671408 5 0  31.25000000003556 5 0  30.83333333335704 5 0  30.41666666667852 5 0  29.59259259259259 5 0  29.18518518518519 5 0  28.77777777777778 5 0  28.37037037037037 5 0  27.96296296296296 5 0  27.55555555555556 5 0  27.14814814814815 5 0  26.74074074074074 5 0  26.33333333333333 5 0  25.92592592592593 5 0  25.51851851851852 5 0  25.11111111111111 5 0  24.7037037037037 5 0  24.2962962962963 5 0  23.88888888888889 5 0  23.48148148148148 5 0  23.07407407407408 5 0  22.66666666666667 5 0  22.25925925925926 5 0  21.85185185185185 5 0  21.44444444444445 5 0  21.03703703703704 5 0  20.62962962962963 5 0  20.22222222222222 5 0  19.81481481481482 5 0  19.40740740740741 5 0  19 5 0  18.5925925925926 5 0  18.18518518518519 5 0  17.77777777777778 5 0  17.37037037037037 5 0  16.96296296296296 5 0  16.55555555555556 5 0  16.14814814814815 5 0  15.74074074074074 5 0  15.33333333333333 5 0  14.92592592592593 5 0  14.51851851851852 5 0  14.11111111111111 5 0  13.70370370370371 5 0  13.2962962962963 5 0  12.88888888888889 5 0  12.48148148148148 5 0  12.07407407407408 5 0  11.66666666666667 5 0  11.25925925925926 5 0  10.85185185185185 5 0  10.44444444444445 5 0  10.03703703703704 5 0  9.629629629629633 5 0  9.222222222222221 5 0  8.814814814814817 5 0  8.407407407407408 5 0  7.5789473684193 5 0  7.157894736838599 5 0  6.73684210526082 5 0  6.315789473684795 5 0  5.894736842108769 5 0  5.473684210532742 5 0  5.052631578956715 5 0  4.631578947380689 5 0  4.210526315804662 5 0  3.789473684226299 5 0  3.368421052645599 5 0  2.947368421064898 5 0  2.526315789484198 5 0  2.105263157903499 5 0  1.6842105263228 5 0  1.2631578947421 5 0  0.8421052631613994 5 0  0.4210526315806993 5 0  0 4.545454545454545 0  0 4.09090909090909 0  0 3.636363636363634 0  0 3.18181818181818 0  0 2.727272727272726 0  0 2.272727272727271 0  0 1.818181818181817 0  0 1.363636363636363 0  0 0.9090909090909092 0  0 0.454545454545455 0  0 -0.4545454545450807 0  0 -0.9090909090895867 0  0 -1.363636363633713 0  0 -1.818181818177841 0  0 -2.272727272723127 0  0 -2.727272727269273 0  0 -3.181818181815419 0  0 -3.636363636361564 0  0 -4.090909090907709 0  0 -4.545454545453855 0  8 -4.499999999999999 0  8 -3.999999999999999 0  8 -3.499999999999999 0  8 -3 0  8.137254901963859 -2.5 0  8.274509803926303 -2.5 0  8.411764705886863 -2.5 0  8.549019607849138 -2.5 0  8.686274509809513 -2.5 0  8.82352941176989 -2.5 0  8.960784313730265 -2.5 0  9.098039215690642 -2.5 0  9.235294117651017 -2.5 0  9.372549019611395 -2.5 0  9.50980392157177 -2.5 0  9.647058823532147 -2.5 0  9.784313725492522 -2.5 0  9.921568627452897 -2.5 0  10.05882352941327 -2.5 0  10.19607843137365 -2.5 0  10.33333333333402 -2.5 0  10.4705882352944 -2.5 0  10.60784313725478 -2.5 0  10.74509803921515 -2.5 0  10.88235294117553 -2.5 0  11.0196078431359 -2.5 0  11.15686274509628 -2.5 0  11.29411764705665 -2.5 0  11.43137254901703 -2.5 0  11.56862745097915 -2.5 0  11.70588235294301 -2.5 0  11.84313725490686 -2.5 0  11.98039215687072 -2.5 0  12.11764705883209 -2.5 0  12.25490196079247 -2.5 0  12.39215686275285 -2.5 0  12.52941176471322 -2.5 0  12.6666666666736 -2.5 0  12.80392156863397 -2.5 0  12.94117647059435 -2.5 0  13.07843137255473 -2.5 0  13.2156862745151 -2.5 0  13.35294117647548 -2.5 0  13.49019607843586 -2.5 0  13.62745098039623 -2.5 0  13.76470588235661 -2.5 0  13.90196078431699 -2.5 0  14.03921568627736 -2.5 0  14.17647058823774 -2.5 0  14.31372549019812 -2.5 0  14.45098039215849 -2.5 0  14.58823529411887 -2.5 0  14.72549019607925 -2.5 0  14.86274509803962 -2.5 0  15.20270270270254 -2.5 0  15.40540540540509 -2.5 0  15.60810810810763 -2.5 0  15.81081081081017 -2.5 0  16.01351351351227 -2.5 0  16.21621621621265 -2.5 0  16.41891891891279 -2.5 0  16.62162162161294 -2.5 0  16.82432432431308 -2.5 0  17.02702702701322 -2.5 0  17.22972972971337 -2.5 0  17.43243243241351 -2.5 0  17.63513513511365 -2.5 0  17.83783783781379 -2.5 0  18.04054054051394 -2.5 0  18.24324324321408 -2.5 0  18.44594594591422 -2.5 0  18.64864864861436 -2.5 0  18.85135135131451 -2.5 0  19.05405405401465 -2.5 0  19.25675675671479 -2.5 0  19.45945945941494 -2.5 0  19.66216216211508 -2.5 0  19.86486486481522 -2.5 0  20.06756756751536 -2.5 0  20.27027027021551 -2.5 0  20.47297297291565 -2.5 0  20.6756756756158 -2.5 0  20.87837837831594 -2.5 0  21.08108108101608 -2.5 0  21.28378378371622 -2.5 0  21.48648648641637 -2.5 0  21.68918918911651 -2.5 0  21.89189189181666 -2.5 0  22.0945945945168 -2.5 0  22.29729729721694 -2.5 0  22.49999999991778 -2.5 0  22.70270270262203 -2.5 0  22.90540540532697 -2.5 0  23.10810810803191 -2.5 0  23.31081081073686 -2.5 0  23.5135135134418 -2.5 0  23.71621621614674 -2.5 0  23.91891891885169 -2.5 0  24.12162162155663 -2.5 0  24.32432432426158 -2.5 0  24.52702702696652 -2.5 0  24.72972972967146 -2.5 0  24.93243243237641 -2.5 0  25.13513513508135 -2.5 0  25.3378378377863 -2.5 0  25.54054054049124 -2.5 0  25.74324324319618 -2.5 0  25.94594594590112 -2.5 0  26.14864864860607 -2.5 0  26.35135135131101 -2.5 0  26.55405405401596 -2.5 0  26.7567567567209 -2.5 0  26.95945945942584 -2.5 0  27.16216216213079 -2.5 0  27.36486486483573 -2.5 0  27.56756756754068 -2.5 0  27.77027027024562 -2.5 0  27.97297297295056 -2.5 0  28.1756756756555 -2.5 0  28.37837837836045 -2.5 0  28.5810810810654 -2.5 0  28.78378378377034 -2.5 0  28.98648648647528 -2.5 0  29.18918918918023 -2.5 0  29.39189189188517 -2.5 0  29.59459459459011 -2.5 0  29.79729729729506 -2.5 0  30 -3.000000000000001 0  30 -3.500000000000001 0  30 -4.000000000000001 0  30 -4.5 0  8 4.499999999999999 0  8 3.999999999999999 0  8 3.499999999999999 0  8 3 0  8.137254901963859 2.5 0  8.274509803926303 2.5 0  8.411764705886863 2.5 0  8.549019607849138 2.5 0  8.686274509809513 2.5 0  8.82352941176989 2.5 0  8.960784313730265 2.5 0  9.098039215690642 2.5 0  9.235294117651017 2.5 0  9.372549019611395 2.5 0  9.50980392157177 2.5 0  9.647058823532147 2.5 0  9.784313725492522 2.5 0  9.921568627452897 2.5 0  10.05882352941327 2.5 0  10.19607843137365 2.5 0  10.33333333333402 2.5 0  10.4705882352944 2.5 0  10.60784313725478 2.5 0  10.74509803921515 2.5 0  10.88235294117553 2.5 0  11.0196078431359 2.5 0  11.15686274509628 2.5 0  11.29411764705665 2.5 0  11.43137254901703 2.5 0  11.56862745097915 2.5 0  11.70588235294301 2.5 0  11.84313725490686 2.5 0  11.98039215687072 2.5 0  12.11764705883209 2.5 0  12.25490196079247 2.5 0  1
[...]
<PointData  Vectors="f_17"> 
<DataArray  type="Float64"  Name="f_17"  NumberOfComponents="3" format="ascii">1.0000001325050303e+00 0.0000000000000000e+00 0.0000000000000000e+00  1.0426328018277948e+00 0.0000000000000000e+00 0.0000000000000000e+00  1.0577407494287900e+00 0.0000000000000000e+00 0.0000000000000000e+00  1.0848749159531288e+00 0.0000000000000000e+00 0.0000000000000000e+00  1.0808219634059668e+00 0.0000000000000000e+00 0.0000000000000000e+00  1.0564019344000868e+00 0.0000000000000000e+00 0.0000000000000000e+00  1.0382830596967527e+00 0.0000000000000000e+00 0.0000000000000000e+00  1.0000001325050303e+00 0.0000000000000000e+00 0.0000000000000000e+00  1.0255349845298312e+00 -5.2052958234200329e-02 0.0000000000000000e+00  1.1393688318041286e+00 3.1241207874501695e-03 0.0000000000000000e+00  1.0978809012639603e+00 -8.8800576100792700e-02 0.0000000000000000e+00  1.0389304032307116e+00 -7.9259129925297558e-02 0.0000000000000000e+00  9.9197912792405829e-01 -4.6934320839474616e-02 0.0000000000000000e+00  1.0172618827480135e+00 4.9606852893595212e-02 0.0000000000000000e+00  0.0000000000000000e+00 0.0000000000000000e+00 0.0000000000000000e+00  0.0000000000000000e+00 0.0000000000000000e+00 0.0000000000000000e+00  1.0000001325050303e+00 0.0000000000000000e+00 0.0000000000000000e+00  9.9930200106090483e-01 0.0000000000000000e+00 0.0000000000000000e+00  9.9878629259572094e-01 0.0000000000000000e+00 0.0000000000000000e+00  1.0008958318598447e+00 0.0000000000000000e+00 0.0000000000000000e+00  1.0008082891282242e+00 0.0000000000000000e+00 0.0000000000000000e+00  1.0019108926854579e+00 0.0000000000000000e+00 0.0000000000000000e+00  1.0023818495966805e+00 0.0000000000000000e+00 0.0000000000000000e+00  1.0028388813980893e+00 0.0000000000000000e+00 0.0000000000000000e+00  1.0038122253677884e+00 0.0000000000000000e+00 0.0000000000000000e+00  1.0051706006449954e+00 0.0000000000000000e+00 0.0000000000000000e+00  1.0063897091138845e+00 0.0000000000000000e+00 0.0000000000000000e+00  1.0079381290312226e+00 0.0000000000000000e+00 0.0000000000000000e+00  1.0102026130630057e+00 0.0000000000000000e+00 0.0000000000000000e+00  1.0125714490041602e+00 0.0000000000000000e+00 0.0000000000000000e+00  1.0165078176143612e+00 0.0000000000000000e+00 0.0000000000000000e+00  1.0182279619490135e+00 0.0000000000000000e+00 0.0000000000000000e+00  1.0227692698936148e+00 0.0000000000000000e+00 0.0000000000000000e+00  1.0294792156127852e+00 0.0000000000000000e+00 0.0000000000000000e+00  1.0348347817266716e+00 0.0000000000000000e+00 0.0000000000000000e+00  1.0503607614358503e+00 0.0000000000000000e+00 0.0000000000000000e+00  1.0583416513780624e+00 0.0000000000000000e+00 0.0000000000000000e+00  1.0654871110534114e+00 0.0000000000000000e+00 0.0000000000000000e+00  1.0727292548933223e+00 0.0000000000000000e+00 0.0000000000000000e+00  1.0780870012249237e+00 0.0000000000000000e+00 0.0000000000000000e+00  1.0822836893896992e+00 0.0000000000000000e+00 0.0000000000000000e+00  1.0856803597540099e+00 0.0000000000000000e+00 0.0000000000000000e+00  1.0863074364678749e+00 0.0000000000000000e+00 0.0000000000000000e+00  1.0861261794063632e+00 0.0000000000000000e+00 0.0000000000000000e+00  1.0848001228384696e+00 0.0000000000000000e+00 0.0000000000000000e+00  1.0834720896706618e+00 0.0000000000000000e+00 0.0000000000000000e+00  1.0812507798739632e+00 0.0000000000000000e+00 0.0000000000000000e+00  1.0804303229909828e+00 0.0000000000000000e+00 0.0000000000000000e+00  1.0798477984440507e+00 0.0000000000000000e+00 0.0000000000000000e+00  1.0791062363250079e+00 0.0000000000000000e+00 0.0000000000000000e+00  1.0782776166935402e+00 0.0000000000000000e+00 0.0000000000000000e+00  1.0763175749543727e+00 0.0000000000000000e+00 0.0000000000000000e+00  1.0729743741214404e+00 0.0000000000000000e+00 0.0000000000000000e+00  1.0677249009923513e+00 0.0000000000000000e+00 0.0000000000000000e+00  1.0609391162242334e+00 0.0000000000000000e+00 0.0000000000000000e+00  1.0545853251529076e+00 0.0000000000000000e+00 0.0000000000000000e+00  1.0489324830473254e+00 0.0000000000000000e+00 0.0000000000000000e+00  1.0431754272248148e+00 0.0000000000000000e+00 0.0000000000000000e+00  1.0403116500345977e+00 0.0000000000000000e+00 0.0000000000000000e+00  1.0396967525513909e+00 0.0000000000000000e+00 0.0000000000000000e+00  1.0415105734277257e+00 0.0000000000000000e+00 0.0000000000000000e+00  1.0458534983077954e+00 0.0000000000000000e+00 0.0000000000000000e+00  1.0509768027393565e+00 0.0000000000000000e+00 0.0000000000000000e+00  1.0561728420287504e+00 0.0000000000000000e+00 0.0000000000000000e+00  1.0607231927473801e+00 0.0000000000000000e+00 0.0000000000000000e+00  1.0623275134508223e+00 0.0000000000000000e+00 0.0000000000000000e+00  1.0614326574332444e+00 0.0000000000000000e+00 0.0000000000000000e+00  1.0596640967544255e+00 0.0000000000000000e+00 0.0000000000000000e+00  1.0553035606126739e+00 0.0000000000000000e+00 0.0000000000000000e+00  1.0502166975302458e+00 0.0000000000000000e+00 0.0000000000000000e+00  1.0466420388507647e+00 0.0000000000000000e+00 0.0000000000000000e+00  1.0436715816018183e+00 0.0000000000000000e+00 0.0000000000000000e+00  1.0425854553053882e+00 0.0000000000000000e+00 0.0000000000000000e+00  1.0452517919123729e+00 0.0000000000000000e+00 0.0000000000000000e+00  1.0487470374038406e+00 0.0000000000000000e+00 0.0000000000000000e+00  1.0532505617267993e+00 0.0000000000000000e+00 0.0000000000000000e+00  1.0586798301457059e+00 0.0000000000000000e+00 0.0000000000000000e+00  1.0624098199792940e+00 0.0000000000000000e+00 0.0000000000000000e+00  1.0642746893740573e+00 0.0000000000000000e+00 0.0000000000000000e+00  1.0645749141635543e+00 0.0000000000000000e+00 0.0000000000000000e+00  1.0619600164920953e+00 0.0000000000000000e+00 0.0000000000000000e+00  1.0576808076006412e+00 0.0000000000000000e+00 0.0000000000000000e+00  1.0554447201142296e+00 0.0000000000000000e+00 0.0000000000000000e+00  1.0518517468352158e+00 0.0000000000000000e+00 0.0000000000000000e+00  1.0479891543600455e+00 0.0000000000000000e+00 0.0000000000000000e+00  1.0472188537796003e+00 0.0000000000000000e+00 0.0000000000000000e+00  1.0499003421585185e+00 0.0000000000000000e+00 0.0000000000000000e+00  1.0533089281974495e+00 0.0000000000000000e+00 0.0000000000000000e+00  1.0618483001771424e+00 0.0000000000000000e+00 0.0000000000000000e+00  1.0639661517970769e+00 0.0000000000000000e+00 0.0000000000000000e+00  1.0642798084535183e+00 0.0000000000000000e+00 0.0000000000000000e+00  1.0636208731160104e+00 0.0000000000000000e+00 0.0000000000000000e+00  1.0610595315496150e+00 0.0000000000000000e+00 0.0000000000000000e+00  1.0573306996032013e+00 0.0000000000000000e+00 0.0000000000000000e+00  1.0535808491925900e+00 0.0000000000000000e+00 0.0000000000000000e+00  1.0513741693273730e+00 0.0000000000000000e+00 0.0000000000000000e+00  1.0508544091889023e+00 0.0000000000000000e+00 0.0000000000000000e+00  1.0519592824626944e+00 0.0000000000000000e+00 0.0000000000000000e+00  1.0552973890429282e+00 0.0000000000000000e+00 0.0000000000000000e+00  1.0595447875962394e+00 0.0000000000000000e+00 0.0000000000000000e+00  1.0635662585277292e+00 0.0000000000000000e+00 0.0000000000000000e+00  1.0673105313762601e+00 0.0000000000000000e+00 0.0000000000000000e+00  1.0694326621066252e+00 0.0000000000000000e+00 0.0000000000000000e+00  1.0703770225817959e+00 0.0000000000000000e+00 0.0000000000000000e+00  1.0688681284101322e+00 0.0000000000000000e+00 0.0000000000000000e+00  1.0671346037829863e+00 0.0000000000000000e+00 0.0000000000000000e+00  1.0652229642903248e+00 0.0000000000000000e+00 0.0000000000000000e+00  1.0650494782317577e+00 0.0000000000000000e+00 0.0000000000000000e+00  1.0662277529162072e+00 0.0000000000000000e+00 0.0000000000000000e+00  1.0706298810400390e+00 0.0000000000000000e+00 0.0000000000000000e+00  1.0765052872627632e+00 0.0000000000000000e+00 0.0000000000000000e+00  1.0852496804255820e+00 -8.8814985276143739e-03 0.0000000000000000e+00  1.0853675055769592e+00 -1.9471211943369864e-02 0.0000000000000000e+00  1.0848505795342402e+00 -3.3479502152077581e-02 0.0000000000000000e+00  1.0808205278449290e+00 -5.3243519865997346e-02 0.0000000000000000e+00  1.0752156364706313e+00 -8.5153793422933791e-02 0.0000000000000000e+00  1.0663796857396715e+00 -1.3109498541516679e-01 0.0000000000000000e+00  1.0422555688694488e+00 -1.9450461624022145e-01 0.0000000000000000e+00  9.8613888170610842e-01 -2.5252795970291309e-01 0.0000000000000000e+00  8.9934055625407405e-01 -2.9258862396971158e-01 0.0000000000000000e+00  8.0988533983333888e-01 -3.0553746041165475e-01 0.0000000000000000e+00  7.5101852720323992e-01 -2.9919850740676768e-01 0.0000000000000000e+00  7.4166522302019677e-01 -2.8397870503941097e-01 0.0000000000000000e+00  7.7911859462044275e-01 -2.6760325168990401e-01 0.0000000000000000e+00  8.5389425012449793e-01 -2.4849394013580386e-01 0.0000000000000000e+00  9.4448301137390800e-01 -2.1918523191152300e-01 0.0000000000000000e+00  1.0246057020583128e+00 -1.6969131586771063e-01 0.0000000000000000e+00  1.0724144902549904e+00 -1.1893187258398510e-01 0.0000000000000000e+00  1.0915208083061616e+00 -7.1595919018099710e-02 0.0000000000000000e+00  1.0921376129340987e+00 -4.0554847617579992e-02 0.0000000000000000e+00  1.0886053094817039e+00 -2.0841814689933270e-02 0.0000000000000000e+00  1.0852136112031490e+00 -1.0317432509663485e-02 0.0000000000000000e+00  1.0836160396307088e+00 -4.9272187169803906e-03 0.0000000000000000e+00  1.0818683258792938e+00 -1.9961913439358902e-03 0.0000000000000000e+00  1.0820682713637184e+00 0.0000000000000000e+00 0.0000000000000000e+00  1.0822967010208087e+00 0.0000000000000000e+00 0.0000000000000000e+00  1.0807723449315099e+00 0.0000000000000000e+00 0.0000000000000000e+00  1.0776086050405975e+00 0.0000000000000000e+00 0.0000000000000000e+00  1.0723114200889858e+00 0.0000000000000000e+00 0.0000000000000000e+00  1.0668944389810315e+00 0.0000000000000000e+00 0.0000000000000000e+00  1.0619856031985191e+00 0.0000000000000000e+00 0.0000000000000000e+00  1.0585706713638043e+00 0.0000000000000000e+00 0.0000000000000000e+00  1.0565067298407291e+00 0.0000000000000000e+00 0.0000000000000000e+00  1.0568273585458181e+00 0.0000000000000000e+00 0.0000000000000000e+00  1.0588763712108802e+00 0.0000000000000000e+00 0.0000000000000000e+00  1.0617240264730110e+00 0.0000000000000000e+00 0.0000000000000000e+00  1.0646525294837492e+00 0.0000000000000000e+00 0.0000000000000000e+00  1.0672783886084949e+00 0.0000000000000000e+00 0.0000000000000000e+00  1.0674666200091760e+00 0.0000000000000000e+00 0.0000000000000000e+00  1.0667533729816769e+00 0.0000000000000000e+00 0.0000000000000000e+00  1.0630341410833470e+00 0.0000000000000000e+00 0.0000000000000000e+00  1.0588470668056524e+00 0.0000000000000000e+00 0.0000000000000000e+00  1.0544398324271886e+00 0.0000000000000000e+00 0.0000000000000000e+00  1.0514623939861316e+00 0.0000000000000000e+00 0.0000000000000000e+00  1.0499639205854623e+00 0.0000000000000000e+00 0.0000000000000000e+00  1.0501321125893079e+00 0.0000000000000000e+00 0.0000000000000000e+00  1.0526965498897871e+00 0.0000000000000000e+00 0.0000000000000000e+00  1.0595415205906533e+00 0.0000000000000000e+00 0.0000000000000000e+00  1.0628549382471482e+00 0.0000000000000000e+00 0.0000000000000000e+00  1.0634738041527814e+00 0.0000000000000000e+00 0.0000000000000000e+00  1.0636098771068283e+00 0.0000000000000000e+00 0.0000000000000000e+00  1.0625895971381980e+00 0.0000000000000000e+00 0.0000000000000000e+00  1.0589656581123468e+00 0.0000000000000000e+00 0.0000000000000000e+00  1.0528267009324617e+00 0.0000000000000000e+00 0.0000000000000000e+00  1.0495083396904914e+00 0.0000000000000000e+00 0.0000000000000000e+00  1.0473487487752473e+00 0.0000000000000000e+00 0.0000000000000000e+00  1.0462232975790193e+00 0.0000000000000000e+00 0.0000000000000000e+00  1.0477586295758010e+00 0.0000000000000000e+00 0.0000000000000000e+00  1.0510318313737943e+00 0.0000000000000000e+00 0.0000000000000000e+00  1.0545836380927927e+00 0.0000000000000000e+00 0.0000000000000000e+00  1.0588763854559562e+00 0.0000000000000000e+00 0.0000000000000000e+00  1.0619507371439953e+00 0.0000000000000000e+00 0.0000000000000000e+00  1.0622835500711114e+00 0.0000000000000000e+00 0.0000000000000000e+00  1.0614330266306160e+00 0.0000000000000000e+00 0.0000000000000000e+00  1.0582740034581752e+00 0.0000000000000000e+00 0.0000000000000000e+00  1.0526415062680357e+00 0.0000000000000000e+00 0.0000000000000000e+00  1.0475457995907922e+00 0.0000000000000000e+00 0.0000000000000000e+00  1.0429253991370024e+00 0.0000000000000000e+00 0.0000000000000000e+00  1.0388497498131903e+00 0.0000000000000000e+00 0.0000000000000000e+00  1.0386285249552201e+00 0.0000000000000000e+00 0.0000000000000000e+00  1.0406620957401014e+00 0.0000000000000000e+00 0.0000000000000000e+00  1.0440828758282357e+00 0.0000000000000000e+00 0.0000000000000000e+00  1.0492639063055178e+00 0.0000000000000000e+00 0.0000000000000000e+00  1.0549117450960459e+00 0.0000000000000000e+00 0.0000000000000000e+00  1.0594625848970713e+00 0.0000000000000000e+00 0.0000000000000000e+00  1.0628519092918063e+00 0.0000000000000000e+00 0.0000000000000000e+00  1.0640798387547827e+00 0.0000000000000000e+00 0.0000000000000000e+00  1.0629309939162515e+00 0.0000000000000000e+00 0.0000000000000000e+00  1.0608762183722424e+00 0.0000000000000000e+00 0.0000000000000000e+00  1.0570342085051434e+00 0.0000000000000000e+00 0.0000000000000000e+00  1.0539447309039667e+00 0.0000000000000000e+00 0.0000000000000000e+00  1.0531088024262438e+00 0.0000000000000000e+00 0.0000000000000000e+00  1.0541867430272274e+00 0.0000000000000000e+00 0.0000000000000000e+00  1.0570415451266608e+00 0.0000000000000000e+00 0.0000000000000000e+00  1.0616347308913030e+00 0.0000000000000000e+00 0.0000000000000000e+00  1.0681197969245342e+00 0.0000000000000000e+00 0.0000000000000000e+00  1.0761517665776668e+00 0.0000000000000000e+00 0.0000000000000000e+00  1.0833835350607379e+00 0.0000000000000000e+00 0.0000000000000000e+00  1.0894360267261169e+00 0.0000000000000000e+00 0.0000000000000000e+00  1.0954104808789151e+00 0.0000000000000000e+00 0.0000000000000000e+00  1.0976673516339108e+00 0.0000000000000000e+00 0.0000000000000000e+00  1.0986248858743095e+00 0.0000000000000000e+00 0.0000000000000000e+00  1.0969561536728567e+00 0.0000000000000000e+00 0.0000000000000000e+00  1.0926622026875326e+00 0.0000000000000000e+00 0.0000000000000000e+00  1.0867303079511803e+00 0.0000000000000000e+00 0.0000000000000000e+00  1.0797489863009713e+00 0.0000000000000000e+00 0.0000000000000000e+00  1.0719152348554062e+00 0.0000000000000000e+00 0.0000000000000000e+00  1.0628587468615938e+00 0.0000000000000000e+00 0.0000000000000000e+00  1.0547713741630640e+00 0.0000000000000000e+00 0.0000000000000000e+00  1.0462586478639690e+00 0.0000000000000000e+00 0.0000000000000000e+00  1.0306896249717674e+00 0.0000000000000000e+00 0.0000000000000000e+00  1.0241774145445615e+00 0.0000000000000000e+00 0.0000000000000000e+00  1.0190683164543661e+00 0.0000000000000000e+00 0.0000000000000000e+00  1.0145161342933751e+00 0.0000000000000000e+00 0.0000000000000000e+00  1.0108058496514982e+00 0.0000000000000000e+00 0.0000000000000000e+00  1.0078989018809303e+00 0.0000000000000000e+00 0.0000000000000000e+00  1.0057246712888230e+00 0.0000000000000000e+00 0.0000000000000000e+00  1.0036260282390639e+00 0.0000000000000000e+00 0.0000000000000000e+00  1.0022567924057282e+00 0.0000000000000000e+00 0.0000000000000000e+00  1.0013660723421081e+00 0.0000000000000000e+00 0.0000000000000000e+00  1.0003664965708650e+00 0.0000000000000000e+00 0.0000000000000000e+00  1.0004146794611850e+00 0.0000000000000000e+00 0.0000000000000000e+00  9.9958072712424195e-01 0.0000000000000000e+00 0.0000000000000000e+00  9.9976328343363707e-01 0.0000000000000000e+00 0.0000000000000000e+00  9.9954035732918356e-01 0.0000000000000000e+00 0.0000000000000000e+00  1.0003616181001174e+00 0.0000000000000000e+00 0.0000000000000000e+00  1.0002025911077514e+00 0.0000000000000000e+00 0.0000000000000000e+00  9.9979166355690008e-01 0.0000000000000000e+00 0.0000000000000000e+00  1.0000001325050303e+00 0.0000000000000000e+00 0.0000000000000000e+00  1.0000001325050303e+00 0.0000000000000000e+00 0.0000000000000000e+00  1.0000001325050303e+00 0.0000000000000000e+00 0.0000000000000000e+00  1.0000001325050303e+00 0.0000000000000000e+00 0.0000000000000000e+00  1.0000001325050303e+00 0.0000000000000000e+00 0.0000000000000000e+00  1.0000001325050303e+00 0.0000000000000000e+00 0.0000000000000000e+00  1.0000001325050303e+00 0.0000000000000000e+00 0.0000000000000000e+00  1.0000001325050303e+00 0.0000000000000000e+00 0.0000000000000000e+00  1.0000001325050303e+00 0.0000000000000000e+00 0.0000000000000000e+00  1.0000001325050303e+00 0.0000000000000000e+00 0.0000000000000000e+00  1.0000001325050303e+00 0.0000000000000000e+00 0.0000000000000000e+00  1.0000001325050303e+00 0.0000000000000000e+00 0.0000000000000000e+00  1.0000001325050303e+00 0.0000000000000000e+00 0.0000000000000000e+00  1.0000001325050303e+00 0.0000000000000000e+00 0.0000000000000000e+00  1.0000001325050303e+00 0.0000000000000000e+00 0.0000000000000000e+00  1.0000001325050303e+00 0.0000000000000000e+00 0.0000000000000000e+00  1.0000001325050303e+00 0.0000000000000000e+00 0.0000000000000000e+00  1.0000001325050303e+00 0.0000000000000000e+00 0.0000000000000000e+00  1.0000001325050303e+00 0.0000000000000000e+00 0.0000000000000000e+00  1.0000001325050303e+00 0.0000000000000000e+00 0.0000000000000000e+00  1.0421493401900719e+00 -9.1427947985008723e-03 0.0000000000000000e+00  1.0395562643091005e+00 -1.8567182690894097e-02 0.0000000000000000e+00  1.0379647711923123e+00 -2.9024259039117112e-02 0.0000000000000000e+00  1.0331157246485334e+00 -4.0186279559948475e-02 0.0000000000000000e+00  1.0285036054715619e+00 -5.5509925597260118e-02 0.0000000000000000e+00  1.0332744262384477e+00 -5.8546932921368339e-02 0.0000000000000000e+00  1.0376208100979440e+00 -6.1591051255555605e-02 0.0000000000000000e+00  1.0430062655219898e+00 -6.4234545174167212e-02 0.0000000000000000e+00  1.0486246248404778e+00 -6.6639128653123367e-02 0.0000000000000000e+00  1.0548513251967919e+00 -6.8512032180441301e-02 0.0000000000000000e+00  1.0616175547513429e+00 -6.9922525744219657e-02 0.0000000000000000e+00  1.0687601836903766e+00 -7.0545185585121031e-02 0.0000000000000000e+00  1.0763489235496071e+00 -7.0486338305108531e-02 0.0000000000000000e+00  1.0839362517184232e+00 -6.9401149789803815e-02 0.0000000000000000e+00  1.0917283448586872e+00 -6.7542440490590785e-02 0.0000000000000000e+00  1.0993735351169514e+00 -6.4794978563636599e-02 0.0000000000000000e+00  1.1069224567854012e+00 -6.0833246940937120e-02 0.0000000000000000e+00  1.1138482586840284e+00 -5.5811148495058208e-02 0.0000000000000000e+00  1.1201932526419744e+00 -5.0019543647253695e-02 0.0000000000000000e+00  1.1257792800225590e+00 -4.3357750058208216e-02 0.0000000000000000e+00  1.1303338131200238e+00 -3.5921626876334184e-02 0.0000000000000000e+00  1.1338206156873920e+00 -2.7920024430477409e-02 0.0000000000000000e+00  1.1361224016809399e+00 -1.9575968421699397e-02 0.0000000000000000e+00  1.1371849988380225e+00 -1.0802199409802189e-02 0.0000000000000000e+00  1.1369582478728286e+00 -2.2941934730095165e-03 0.0000000000000000e+00  1.1354401597917836e+00 6.2996476768990908e-03 0.0000000000000000e+00  1.1324794137022818e+00 1.4555399294418151e-02 0.0000000000000000e+00  1.1284777518854896e+00 2.2074120509613729e-02 0.0000000000000000e+00  1.1231816887992585e+00 2.8735463782195689e-02 0.0000000000000000e+00  1.1169111451666589e+00 3.4416294278434630e-02 0.0000000000000000e+00  1.1097676043614544e+00 3.8961673857543400e-02 0.0000000000000000e+00  1.1019744575436645e+00 4.2022291437389399e-02 0.0000000000000000e+00  1.0937287923710453e+00 4.3731168584356397e-02 0.0000000000000000e+00  1.0853214213938718e+00 4.4014706669544032e-02 0.0000000000000000e+00  1.0771006501514455e+00 4.2638952693326473e-02 0.0000000000000000e+00  1.0692249526136528e+00 3.98036