<?xml version="1.0"?>
<VTKFile type="UnstructuredGrid"  version="0.1"  >
<UnstructuredGrid>
<Piece  NumberOfPoints="10199" NumberOfCells="20110">
<Points>
<DataArray  type="Float64"  NumberOfComponents="3"  format="ascii">0 -5 0  8 -5 0  30 -5 0  40 -5 0  40 5 0  30 5 0  8 5 0  0 5 0  8 -2.5 0  15 -2.5 0  30 -2.5 0  30 2.5 0  15 2.5 0  8 2.5 0  10 0.5 0  10 -0.5 0  0 0 0  0.4210526315780956 -5 0  0.8421052631563433 -5 0  1.263157894734281 -5 0  1.684210526311999 -5 0  2.105263157889717 -5 0  2.526315789467435 -5 0  2.947368421045153 -5 0  3.368421052622872 -5 0  3.78947368420059 -5 0  4.210526315779479 -5 0  4.631578947359537 -5 0  5.052631578939595 -5 0  5.473684210519653 -5 0  5.89473684209971 -5 0  6.315789473679768 -5 0  6.736842105259826 -5 0  7.157894736839884 -5 0  7.578947368419942 -5 0  8.407407407405314 -5 0  8.814814814810628 -5 0  9.222222222215942 -5 0  9.629629629621256 -5 0  10.03703703702657 -5 0  10.44444444443188 -5 0  10.8518518518372 -5 0  11.25925925924251 -5 0  11.66666666664783 -5 0  12.07407407405314 -5 0  12.48148148145846 -5 0  12.88888888886377 -5 0  13.29629629626908 -5 0  13.7037037036744 -5 0  14.11111111107971 -5 0  14.51851851848502 -5 0  14.92592592589034 -5 0  15.33333333329565 -5 0  15.74074074070096 -5 0  16.14814814810754 -5 0  16.55555555551614 -5 0  16.96296296292474 -5 0  17.37037037033335 -5 0  17.77777777774195 -5 0  18.18518518515056 -5 0  18.59259259255916 -5 0  18.99999999996776 -5 0  19.40740740737636 -5 0  19.81481481478497 -5 0  20.22222222219357 -5 0  20.62962962960217 -5 0  21.03703703701077 -5 0  21.44444444441937 -5 0  21.85185185182797 -5 0  22.25925925923657 -5 0  22.66666666664518 -5 0  23.07407407405378 -5 0  23.48148148146238 -5 0  23.88888888887098 -5 0  24.29629629627958 -5 0  24.70370370368818 -5 0  25.11111111109678 -5 0  25.51851851850539 -5 0  25.92592592591399 -5 0  26.33333333332259 -5 0  26.74074074073119 -5 0  27.14814814813979 -5 0  27.55555555554839 -5 0  27.96296296295699 -5 0  28.3703703703656 -5 0  28.7777777777742 -5 0  29.1851851851828 -5 0  29.5925925925914 -5 0  30.41666666667852 -5 0  30.83333333335704 -5 0  31.25000000003556 -5 0  31.66666666671408 -5 0  32.08333333338936 -5 0  32.50000000005308 -5 0  32.9166666667168 -5 0  33.33333333338052 -5 0  33.75000000004424 -5 0  34.16666666670795 -5 0  34.58333333337167 -5 0  35.00000000003539 -5 0  35.41666666669911 -5 0  35.83333333336282 -5 0  36.25000000002654 -5 0  36.66666666669026 -5 0  37.08333333335398 -5 0  37.50000000001769 -5 0  37.91666666668141 -5 0  38.33333333334513 -5 0  38.75000000000885 -5 0  39.16666666667257 -5 0  39.58333333333628 -5 0  40 -4.583333333332821 0  40 -4.166666666665642 0  40 -3.74999999999855 0  40 -3.333333333333135 0  40 -2.916666666667806 0  40 -2.500000000002478 0  40 -2.083333333337148 0  40 -1.666666666671818 0  40 -1.250000000006488 0  40 -0.8333333333405228 0  40 -0.4166666666733416 0  40 -6.163070054299169e-12 0  40 0.4166666666610173 0  40 0.8333333333281976 0  40 1.249999999995378 0  40 1.666666666662558 0  40 2.083333333329739 0  40 2.499999999996919 0  40 2.916666666664099 0  40 3.33333333333128 0  40 3.74999999999846 0  40 4.166666666665641 0  40 4.583333333332821 0  39.58333333333628 5 0  39.16666666667256 5 0  38.75000000000885 5 0  38.33333333334513 5 0  37.91666666668141 5 0  37.50000000001769 5 0  37.08333333335398 5 0  36.66666666669025 5 0  36.25000000002654 5 0  35.83333333336282 5 0  35.41666666669911 5 0  35.00000000003539 5 0  34.58333333337167 5 0  34.16666666670795 5 0  33.75000000004424 5 0  33.33333333338052 5 0  32.9166666667168 5 0  32.50000000005308 5 0  32.08333333338936 5 0  31.66666666671408 5 0  31.25000000003556 5 0  30.83333333335704 5 0  30.41666666667852 5 0  29.59259259259259 5 0  29.18518518518519 5 0  28.77777777777778 5 0  28.37037037037037 5 0  27.96296296296296 5 0  27.55555555555556 5 0  27.14814814814815 5 0  26.74074074074074 5 0  26.33333333333333 5 0  25.92592592592593 5 0  25.51851851851852 5 0  25.11111111111111 5 0  24.7037037037037 5 0  24.2962962962963 5 0  23.88888888888889 5 0  23.48148148148148 5 0  23.07407407407408 5 0  22.66666666666667 5 0  22.25925925925926 5 0  21.85185185185185 5 0  21.44444444444445 5 0  21.03703703703704 5 0  20.62962962962963 5 0  20.22222222222222 5 0  19.81481481481482 5 0  19.40740740740741 5 0  19 5 0  18.5925925925926 5 0  18.18518518518519 5 0  17.77777777777778 5 0  17.37037037037037 5 0  16.96296296296296 5 0  16.55555555555556 5 0  16.14814814814815 5 0  15.74074074074074 5 0  15.33333333333333 5 0  14.92592592592593 5 0  14.51851851851852 5 0  14.11111111111111 5 0  13.70370370370371 5 0  13.2962962962963 5 0  12.88888888888889 5 0  12.48148148148148 5 0  12.07407407407408 5 0  11.66666666666667 5 0  11.25925925925926 5 0  10.85185185185185 5 0  10.44444444444445 5 0  10.03703703703704 5 0  9.629629629629633 5 0  9.222222222222221 5 0  8.814814814814817 5 0  8.407407407407408 5 0  7.5789473684193 5 0  7.157894736838599 5 0  6.73684210526082 5 0  6.315789473684795 5 0  5.894736842108769 5 0  5.473684210532742 5 0  5.052631578956715 5 0  4.631578947380689 5 0  4.210526315804662 5 0  3.789473684226299 5 0  3.368421052645599 5 0  2.947368421064898 5 0  2.526315789484198 5 0  2.105263157903499 5 0  1.6842105263228 5 0  1.2631578947421 5 0  0.8421052631613994 5 0  0.4210526315806993 5 0  0 4.545454545454545 0  0 4.09090909090909 0  0 3.636363636363634 0  0 3.18181818181818 0  0 2.727272727272726 0  0 2.272727272727271 0  0 1.818181818181817 0  0 1.363636363636363 0  0 0.9090909090909092 0  0 0.454545454545455 0  0 -0.4545454545450807 0  0 -0.9090909090895867 0  0 -1.363636363633713 0  0 -1.818181818177841 0  0 -2.272727272723127 0  0 -2.727272727269273 0  0 -3.181818181815419 0  0 -3.636363636361564 0  0 -4.090909090907709 0  0 -4.545454545453855 0  8 -4.499999999999999 0  8 -3.999999999999999 0  8 -3.499999999999999 0  8 -3 0  8.137254901963859 -2.5 0  8.274509803926303 -2.5 0  8.411764705886863 -2.5 0  8.549019607849138 -2.5 0  8.686274509809513 -2.5 0  8.82352941176989 -2.5 0  8.960784313730265 -2.5 0  9.098039215690642 -2.5 0  9.235294117651017 -2.5 0  9.372549019611395 -2.5 0  9.50980392157177 -2.5 0  9.647058823532147 -2.5 0  9.784313725492522 -2.5 0  9.921568627452897 -2.5 0  10.05882352941327 -2.5 0  10.19607843137365 -2.5 0  10.33333333333402 -2.5 0  10.4705882352944 -2.5 0  10.60784313725478 -2.5 0  10.74509803921515 -2.5 0  10.88235294117553 -2.5 0  11.0196078431359 -2.5 0  11.15686274509628 -2.5 0  11.29411764705665 -2.5 0  11.43137254901703 -2.5 0  11.56862745097915 -2.5 0  11.70588235294301 -2.5 0  11.84313725490686 -2.5 0  11.98039215687072 -2.5 0  12.11764705883209 -2.5 0  12.25490196079247 -2.5 0  12.39215686275285 -2.5 0  12.52941176471322 -2.5 0  12.6666666666736 -2.5 0  12.80392156863397 -2.5 0  12.94117647059435 -2.5 0  13.07843137255473 -2.5 0  13.2156862745151 -2.5 0  13.35294117647548 -2.5 0  13.49019607843586 -2.5 0  13.62745098039623 -2.5 0  13.76470588235661 -2.5 0  13.90196078431699 -2.5 0  14.03921568627736 -2.5 0  14.17647058823774 -2.5 0  14.31372549019812 -2.5 0  14.45098039215849 -2.5 0  14.58823529411887 -2.5 0  14.72549019607925 -2.5 0  14.86274509803962 -2.5 0  15.20270270270254 -2.5 0  15.40540540540509 -2.5 0  15.60810810810763 -2.5 0  15.81081081081017 -2.5 0  16.01351351351227 -2.5 0  16.21621621621265 -2.5 0  16.41891891891279 -2.5 0  16.62162162161294 -2.5 0  16.82432432431308 -2.5 0  17.02702702701322 -2.5 0  17.22972972971337 -2.5 0  17.43243243241351 -2.5 0  17.63513513511365 -2.5 0  17.83783783781379 -2.5 0  18.04054054051394 -2.5 0  18.24324324321408 -2.5 0  18.44594594591422 -2.5 0  18.64864864861436 -2.5 0  18.85135135131451 -2.5 0  19.05405405401465 -2.5 0  19.25675675671479 -2.5 0  19.45945945941494 -2.5 0  19.66216216211508 -2.5 0  19.86486486481522 -2.5 0  20.06756756751536 -2.5 0  20.27027027021551 -2.5 0  20.47297297291565 -2.5 0  20.6756756756158 -2.5 0  20.87837837831594 -2.5 0  21.08108108101608 -2.5 0  21.28378378371622 -2.5 0  21.48648648641637 -2.5 0  21.68918918911651 -2.5 0  21.89189189181666 -2.5 0  22.0945945945168 -2.5 0  22.29729729721694 -2.5 0  22.49999999991778 -2.5 0  22.70270270262203 -2.5 0  22.90540540532697 -2.5 0  23.10810810803191 -2.5 0  23.31081081073686 -2.5 0  23.5135135134418 -2.5 0  23.71621621614674 -2.5 0  23.91891891885169 -2.5 0  24.12162162155663 -2.5 0  24.32432432426158 -2.5 0  24.52702702696652 -2.5 0  24.72972972967146 -2.5 0  24.93243243237641 -2.5 0  25.13513513508135 -2.5 0  25.3378378377863 -2.5 0  25.54054054049124 -2.5 0  25.74324324319618 -2.5 0  25.94594594590112 -2.5 0  26.14864864860607 -2.5 0  26.35135135131101 -2.5 0  26.55405405401596 -2.5 0  26.7567567567209 -2.5 0  26.95945945942584 -2.5 0  27.16216216213079 -2.5 0  27.36486486483573 -2.5 0  27.56756756754068 -2.5 0  27.77027027024562 -2.5 0  27.97297297295056 -2.5 0  28.1756756756555 -2.5 0  28.37837837836045 -2.5 0  28.5810810810654 -2.5 0  28.78378378377034 -2.5 0  28.98648648647528 -2.5 0  29.18918918918023 -2.5 0  29.39189189188517 -2.5 0  29.59459459459011 -2.5 0  29.79729729729506 -2.5 0  30 -3.000000000000001 0  30 -3.500000000000001 0  30 -4.000000000000001 0  30 -4.5 0  8 4.499999999999999 0  8 3.999999999999999 0  8 3.499999999999999 0  8 3 0  8.137254901963859 2.5 0  8.274509803926303 2.5 0  8.411764705886863 2.5 0  8.549019607849138 2.5 0  8.686274509809513 2.5 0  8.82352941176989 2.5 0  8.960784313730265 2.5 0  9.098039215690642 2.5 0  9.235294117651017 2.5 0  9.372549019611395 2.5 0  9.50980392157177 2.5 0  9.647058823532147 2.5 0  9.784313725492522 2.5 0  9.921568627452897 2.5 0  10.05882352941327 2.5 0  10.19607843137365 2.5 0  10.33333333333402 2.5 0  10.4705882352944 2.5 0  10.60784313725478 2.5 0  10.74509803921515 2.5 0  10.88235294117553 2.5 0  11.0196078431359 2.5 0  11.15686274509628 2.5 0  11.29411764705665 2.5 0  11.43137254901703 2.5 0  11.56862745097915 2.5 0  11.70588235294301 2.5 0  11.84313725490686 2.5 0  11.98039215687072 2.5 0  12.11764705883209 2.5 0  12.25490196079247 2.5 0  1
[...]
<PointData  Vectors="f_17"> 
<DataArray  type="Float64"  Name="f_17"  NumberOfComponents="3" format="ascii">1.0000001296257595e+00 0.0000000000000000e+00 0.0000000000000000e+00  1.0394558789188513e+00 0.0000000000000000e+00 0.0000000000000000e+00  1.0533155720306844e+00 0.0000000000000000e+00 0.0000000000000000e+00  1.0781144854989015e+00 0.0000000000000000e+00 0.0000000000000000e+00  1.0914980149915519e+00 0.0000000000000000e+00 0.0000000000000000e+00  1.0614066380312119e+00 0.0000000000000000e+00 0.0000000000000000e+00  1.0414850827659805e+00 0.0000000000000000e+00 0.0000000000000000e+00  1.0000001296257595e+00 0.0000000000000000e+00 0.0000000000000000e+00  1.0175648819719638e+00 -5.0415906356032332e-02 0.0000000000000000e+00  9.8592311203698546e-01 1.3555789713432419e-02 0.0000000000000000e+00  1.0092622149043806e+00 5.9471582680043877e-02 0.0000000000000000e+00  1.1363232802112073e+00 6.9075573693332976e-02 0.0000000000000000e+00  1.1326984125851511e+00 -4.4519859193619823e-02 0.0000000000000000e+00  1.0252314959776976e+00 5.1276295064728479e-02 0.0000000000000000e+00  0.0000000000000000e+00 0.0000000000000000e+00 0.0000000000000000e+00  0.0000000000000000e+00 0.0000000000000000e+00 0.0000000000000000e+00  1.0000001296257595e+00 0.0000000000000000e+00 0.0000000000000000e+00  9.9928356768520632e-01 0.0000000000000000e+00 0.0000000000000000e+00  9.9866868677394272e-01 0.0000000000000000e+00 0.0000000000000000e+00  1.0006455033253021e+00 0.0000000000000000e+00 0.0000000000000000e+00  1.0003290916503775e+00 0.0000000000000000e+00 0.0000000000000000e+00  1.0011366999825719e+00 0.0000000000000000e+00 0.0000000000000000e+00  1.0012647894290554e+00 0.0000000000000000e+00 0.0000000000000000e+00  1.0013762788553093e+00 0.0000000000000000e+00 0.0000000000000000e+00  1.0020356564246522e+00 0.0000000000000000e+00 0.0000000000000000e+00  1.0030911099817625e+00 0.0000000000000000e+00 0.0000000000000000e+00  1.0041021272402155e+00 0.0000000000000000e+00 0.0000000000000000e+00  1.0054381232374878e+00 0.0000000000000000e+00 0.0000000000000000e+00  1.0075842999622122e+00 0.0000000000000000e+00 0.0000000000000000e+00  1.0098102882485196e+00 0.0000000000000000e+00 0.0000000000000000e+00  1.0135917690294753e+00 0.0000000000000000e+00 0.0000000000000000e+00  1.0151718833232068e+00 0.0000000000000000e+00 0.0000000000000000e+00  1.0195521458989585e+00 0.0000000000000000e+00 0.0000000000000000e+00  1.0261472069806479e+00 0.0000000000000000e+00 0.0000000000000000e+00  1.0314805598518875e+00 0.0000000000000000e+00 0.0000000000000000e+00  1.0476317459081907e+00 0.0000000000000000e+00 0.0000000000000000e+00  1.0564232909001161e+00 0.0000000000000000e+00 0.0000000000000000e+00  1.0648573409869746e+00 0.0000000000000000e+00 0.0000000000000000e+00  1.0739454608536869e+00 0.0000000000000000e+00 0.0000000000000000e+00  1.0815805433457848e+00 0.0000000000000000e+00 0.0000000000000000e+00  1.0884257182916357e+00 0.0000000000000000e+00 0.0000000000000000e+00  1.0944746777461907e+00 0.0000000000000000e+00 0.0000000000000000e+00  1.0972999511766948e+00 0.0000000000000000e+00 0.0000000000000000e+00  1.0984433451028444e+00 0.0000000000000000e+00 0.0000000000000000e+00  1.0969227707179041e+00 0.0000000000000000e+00 0.0000000000000000e+00  1.0935177505178644e+00 0.0000000000000000e+00 0.0000000000000000e+00  1.0872107140723923e+00 0.0000000000000000e+00 0.0000000000000000e+00  1.0807828963540702e+00 0.0000000000000000e+00 0.0000000000000000e+00  1.0737132790811592e+00 0.0000000000000000e+00 0.0000000000000000e+00  1.0670778538222827e+00 0.0000000000000000e+00 0.0000000000000000e+00  1.0621510774584899e+00 0.0000000000000000e+00 0.0000000000000000e+00  1.0590130586220683e+00 0.0000000000000000e+00 0.0000000000000000e+00  1.0581238397269401e+00 0.0000000000000000e+00 0.0000000000000000e+00  1.0588191916903380e+00 0.0000000000000000e+00 0.0000000000000000e+00  1.0604458850420635e+00 0.0000000000000000e+00 0.0000000000000000e+00  1.0635117753315240e+00 0.0000000000000000e+00 0.0000000000000000e+00  1.0661077465207007e+00 0.0000000000000000e+00 0.0000000000000000e+00  1.0658745617263452e+00 0.0000000000000000e+00 0.0000000000000000e+00  1.0643139712140999e+00 0.0000000000000000e+00 0.0000000000000000e+00  1.0605530392621396e+00 0.0000000000000000e+00 0.0000000000000000e+00  1.0552392344907062e+00 0.0000000000000000e+00 0.0000000000000000e+00  1.0498049066086428e+00 0.0000000000000000e+00 0.0000000000000000e+00  1.0444403484425970e+00 0.0000000000000000e+00 0.0000000000000000e+00  1.0406500455564025e+00 0.0000000000000000e+00 0.0000000000000000e+00  1.0393700555170009e+00 0.0000000000000000e+00 0.0000000000000000e+00  1.0398335998520793e+00 0.0000000000000000e+00 0.0000000000000000e+00  1.0424060410620657e+00 0.0000000000000000e+00 0.0000000000000000e+00  1.0482275025236192e+00 0.0000000000000000e+00 0.0000000000000000e+00  1.0535873185405060e+00 0.0000000000000000e+00 0.0000000000000000e+00  1.0582122839112038e+00 0.0000000000000000e+00 0.0000000000000000e+00  1.0622464638677940e+00 0.0000000000000000e+00 0.0000000000000000e+00  1.0631524743647973e+00 0.0000000000000000e+00 0.0000000000000000e+00  1.0614825617008417e+00 0.0000000000000000e+00 0.0000000000000000e+00  1.0592656000761076e+00 0.0000000000000000e+00 0.0000000000000000e+00  1.0550986788762891e+00 0.0000000000000000e+00 0.0000000000000000e+00  1.0507792347329801e+00 0.0000000000000000e+00 0.0000000000000000e+00  1.0482298574221218e+00 0.0000000000000000e+00 0.0000000000000000e+00  1.0466741172401910e+00 0.0000000000000000e+00 0.0000000000000000e+00  1.0471591511030454e+00 0.0000000000000000e+00 0.0000000000000000e+00  1.0502500835519069e+00 0.0000000000000000e+00 0.0000000000000000e+00  1.0537919334863375e+00 0.0000000000000000e+00 0.0000000000000000e+00  1.0574920644017634e+00 0.0000000000000000e+00 0.0000000000000000e+00  1.0632820221729240e+00 0.0000000000000000e+00 0.0000000000000000e+00  1.0655921944848548e+00 0.0000000000000000e+00 0.0000000000000000e+00  1.0643523895180700e+00 0.0000000000000000e+00 0.0000000000000000e+00  1.0621465882287284e+00 0.0000000000000000e+00 0.0000000000000000e+00  1.0600672330445231e+00 0.0000000000000000e+00 0.0000000000000000e+00  1.0562284600469949e+00 0.0000000000000000e+00 0.0000000000000000e+00  1.0511164345726332e+00 0.0000000000000000e+00 0.0000000000000000e+00  1.0500166278244141e+00 0.0000000000000000e+00 0.0000000000000000e+00  1.0509176577861272e+00 0.0000000000000000e+00 0.0000000000000000e+00  1.0542163018684407e+00 0.0000000000000000e+00 0.0000000000000000e+00  1.0586421462195696e+00 0.0000000000000000e+00 0.0000000000000000e+00  1.0624682985131555e+00 0.0000000000000000e+00 0.0000000000000000e+00  1.0654970314322287e+00 0.0000000000000000e+00 0.0000000000000000e+00  1.0670868148080690e+00 0.0000000000000000e+00 0.0000000000000000e+00  1.0669229083491822e+00 0.0000000000000000e+00 0.0000000000000000e+00  1.0645992505767155e+00 0.0000000000000000e+00 0.0000000000000000e+00  1.0617793218028921e+00 0.0000000000000000e+00 0.0000000000000000e+00  1.0587230047723506e+00 0.0000000000000000e+00 0.0000000000000000e+00  1.0562967390876632e+00 0.0000000000000000e+00 0.0000000000000000e+00  1.0560559929835616e+00 0.0000000000000000e+00 0.0000000000000000e+00  1.0577665766007158e+00 0.0000000000000000e+00 0.0000000000000000e+00  1.0619089894549840e+00 0.0000000000000000e+00 0.0000000000000000e+00  1.0664455967718134e+00 0.0000000000000000e+00 0.0000000000000000e+00  1.0718706317154632e+00 0.0000000000000000e+00 0.0000000000000000e+00  1.0762844883282665e+00 0.0000000000000000e+00 0.0000000000000000e+00  1.0799624397386240e+00 0.0000000000000000e+00 0.0000000000000000e+00  1.0811165822438924e+00 0.0000000000000000e+00 0.0000000000000000e+00  1.0812109380380703e+00 0.0000000000000000e+00 0.0000000000000000e+00  1.0793405415770756e+00 0.0000000000000000e+00 0.0000000000000000e+00  1.0784669924349639e+00 1.6372671198191940e-03 0.0000000000000000e+00  1.0785983958712413e+00 4.0953685090159651e-03 0.0000000000000000e+00  1.0780634080019131e+00 8.6209365581415374e-03 0.0000000000000000e+00  1.0743883495691953e+00 1.7204599486923638e-02 0.0000000000000000e+00  1.0683835511825603e+00 3.2364155910918957e-02 0.0000000000000000e+00  1.0541248282536548e+00 5.6940071666473767e-02 0.0000000000000000e+00  1.0251148940661454e+00 9.1162004074784128e-02 0.0000000000000000e+00  9.7522418367531971e-01 1.3064905513458439e-01 0.0000000000000000e+00  9.0515960784131844e-01 1.6878611057222237e-01 0.0000000000000000e+00  8.2721277322310793e-01 1.9703885054359488e-01 0.0000000000000000e+00  7.6039441592170420e-01 2.2123481468497039e-01 0.0000000000000000e+00  7.2578861558186103e-01 2.4078205460963456e-01 0.0000000000000000e+00  7.4495383652984926e-01 2.6310854326792288e-01 0.0000000000000000e+00  8.2126330945198422e-01 2.8280278908308731e-01 0.0000000000000000e+00  9.3270310079802277e-01 2.8831258585357283e-01 0.0000000000000000e+00  1.0393396742146688e+00 2.5830833843759837e-01 0.0000000000000000e+00  1.1038358960544363e+00 2.0290982477520314e-01 0.0000000000000000e+00  1.1204077500040621e+00 1.4128918945689786e-01 0.0000000000000000e+00  1.1120190074018397e+00 9.1103762640323868e-02 0.0000000000000000e+00  1.1032757556033777e+00 5.5580711726253951e-02 0.0000000000000000e+00  1.0979878438038422e+00 3.3880025287652396e-02 0.0000000000000000e+00  1.0951975168134196e+00 1.9543552706895860e-02 0.0000000000000000e+00  1.0927764042216199e+00 8.7866875990364104e-03 0.0000000000000000e+00  1.0827033489486413e+00 0.0000000000000000e+00 0.0000000000000000e+00  1.0747108990005816e+00 0.0000000000000000e+00 0.0000000000000000e+00  1.0684125183914874e+00 0.0000000000000000e+00 0.0000000000000000e+00  1.0650851659118961e+00 0.0000000000000000e+00 0.0000000000000000e+00  1.0635887558406452e+00 0.0000000000000000e+00 0.0000000000000000e+00  1.0645083357137615e+00 0.0000000000000000e+00 0.0000000000000000e+00  1.0666419079688367e+00 0.0000000000000000e+00 0.0000000000000000e+00  1.0691377523114736e+00 0.0000000000000000e+00 0.0000000000000000e+00  1.0700089986092640e+00 0.0000000000000000e+00 0.0000000000000000e+00  1.0697938380613581e+00 0.0000000000000000e+00 0.0000000000000000e+00  1.0676016542105806e+00 0.0000000000000000e+00 0.0000000000000000e+00  1.0638551055185337e+00 0.0000000000000000e+00 0.0000000000000000e+00  1.0592828897727600e+00 0.0000000000000000e+00 0.0000000000000000e+00  1.0556360425506626e+00 0.0000000000000000e+00 0.0000000000000000e+00  1.0522005505838399e+00 0.0000000000000000e+00 0.0000000000000000e+00  1.0515934135900740e+00 0.0000000000000000e+00 0.0000000000000000e+00  1.0516886581308826e+00 0.0000000000000000e+00 0.0000000000000000e+00  1.0541438533347651e+00 0.0000000000000000e+00 0.0000000000000000e+00  1.0574204637948816e+00 0.0000000000000000e+00 0.0000000000000000e+00  1.0614422406537201e+00 0.0000000000000000e+00 0.0000000000000000e+00  1.0641827254399687e+00 0.0000000000000000e+00 0.0000000000000000e+00  1.0649235610700269e+00 0.0000000000000000e+00 0.0000000000000000e+00  1.0641918219197484e+00 0.0000000000000000e+00 0.0000000000000000e+00  1.0570110322361406e+00 0.0000000000000000e+00 0.0000000000000000e+00  1.0529752150199749e+00 0.0000000000000000e+00 0.0000000000000000e+00  1.0487539549133833e+00 0.0000000000000000e+00 0.0000000000000000e+00  1.0474904928498288e+00 0.0000000000000000e+00 0.0000000000000000e+00  1.0490012223976870e+00 0.0000000000000000e+00 0.0000000000000000e+00  1.0512107153157688e+00 0.0000000000000000e+00 0.0000000000000000e+00  1.0530122499156052e+00 0.0000000000000000e+00 0.0000000000000000e+00  1.0576148362949114e+00 0.0000000000000000e+00 0.0000000000000000e+00  1.0616819036801997e+00 0.0000000000000000e+00 0.0000000000000000e+00  1.0635573918006853e+00 0.0000000000000000e+00 0.0000000000000000e+00  1.0639271563387267e+00 0.0000000000000000e+00 0.0000000000000000e+00  1.0620013929157666e+00 0.0000000000000000e+00 0.0000000000000000e+00  1.0574984408588326e+00 0.0000000000000000e+00 0.0000000000000000e+00  1.0527883489427876e+00 0.0000000000000000e+00 0.0000000000000000e+00  1.0479825894006680e+00 0.0000000000000000e+00 0.0000000000000000e+00  1.0433704397551589e+00 0.0000000000000000e+00 0.0000000000000000e+00  1.0419516014943129e+00 0.0000000000000000e+00 0.0000000000000000e+00  1.0426944836617016e+00 0.0000000000000000e+00 0.0000000000000000e+00  1.0446661202325840e+00 0.0000000000000000e+00 0.0000000000000000e+00  1.0491509152592164e+00 0.0000000000000000e+00 0.0000000000000000e+00  1.0541250433030978e+00 0.0000000000000000e+00 0.0000000000000000e+00  1.0576578739193807e+00 0.0000000000000000e+00 0.0000000000000000e+00  1.0610394525978730e+00 0.0000000000000000e+00 0.0000000000000000e+00  1.0621815163164274e+00 0.0000000000000000e+00 0.0000000000000000e+00  1.0599892532604966e+00 0.0000000000000000e+00 0.0000000000000000e+00  1.0561759505528516e+00 0.0000000000000000e+00 0.0000000000000000e+00  1.0511794549769200e+00 0.0000000000000000e+00 0.0000000000000000e+00  1.0457768659591837e+00 0.0000000000000000e+00 0.0000000000000000e+00  1.0418845753104826e+00 0.0000000000000000e+00 0.0000000000000000e+00  1.0400213355617884e+00 0.0000000000000000e+00 0.0000000000000000e+00  1.0403374479888199e+00 0.0000000000000000e+00 0.0000000000000000e+00  1.0439044788654501e+00 0.0000000000000000e+00 0.0000000000000000e+00  1.0483229271229093e+00 0.0000000000000000e+00 0.0000000000000000e+00  1.0545137910207063e+00 0.0000000000000000e+00 0.0000000000000000e+00  1.0618823326619113e+00 0.0000000000000000e+00 0.0000000000000000e+00  1.0687564703954509e+00 0.0000000000000000e+00 0.0000000000000000e+00  1.0740748027825413e+00 0.0000000000000000e+00 0.0000000000000000e+00  1.0775754744065686e+00 0.0000000000000000e+00 0.0000000000000000e+00  1.0801248923867763e+00 0.0000000000000000e+00 0.0000000000000000e+00  1.0823719089448727e+00 0.0000000000000000e+00 0.0000000000000000e+00  1.0831903101358829e+00 0.0000000000000000e+00 0.0000000000000000e+00  1.0836402621334142e+00 0.0000000000000000e+00 0.0000000000000000e+00  1.0854706445485049e+00 0.0000000000000000e+00 0.0000000000000000e+00  1.0856163492875162e+00 0.0000000000000000e+00 0.0000000000000000e+00  1.0863128168422398e+00 0.0000000000000000e+00 0.0000000000000000e+00  1.0859623783170822e+00 0.0000000000000000e+00 0.0000000000000000e+00  1.0838521475400065e+00 0.0000000000000000e+00 0.0000000000000000e+00  1.0805809718672761e+00 0.0000000000000000e+00 0.0000000000000000e+00  1.0762676360746284e+00 0.0000000000000000e+00 0.0000000000000000e+00  1.0707068447560426e+00 0.0000000000000000e+00 0.0000000000000000e+00  1.0635073104854100e+00 0.0000000000000000e+00 0.0000000000000000e+00  1.0567005508978302e+00 0.0000000000000000e+00 0.0000000000000000e+00  1.0490141715297934e+00 0.0000000000000000e+00 0.0000000000000000e+00  1.0340691087836202e+00 0.0000000000000000e+00 0.0000000000000000e+00  1.0275221460176687e+00 0.0000000000000000e+00 0.0000000000000000e+00  1.0222986863969847e+00 0.0000000000000000e+00 0.0000000000000000e+00  1.0175768219379429e+00 0.0000000000000000e+00 0.0000000000000000e+00  1.0137253983920882e+00 0.0000000000000000e+00 0.0000000000000000e+00  1.0106796917354361e+00 0.0000000000000000e+00 0.0000000000000000e+00  1.0083589697266515e+00 0.0000000000000000e+00 0.0000000000000000e+00  1.0061219257379332e+00 0.0000000000000000e+00 0.0000000000000000e+00  1.0045452142980307e+00 0.0000000000000000e+00 0.0000000000000000e+00  1.0034407168888977e+00 0.0000000000000000e+00 0.0000000000000000e+00  1.0021493242721131e+00 0.0000000000000000e+00 0.0000000000000000e+00  1.0018766670599220e+00 0.0000000000000000e+00 0.0000000000000000e+00  1.0006899084470637e+00 0.0000000000000000e+00 0.0000000000000000e+00  1.0005478179482816e+00 0.0000000000000000e+00 0.0000000000000000e+00  1.0000232459800726e+00 0.0000000000000000e+00 0.0000000000000000e+00  1.0006077549907970e+00 0.0000000000000000e+00 0.0000000000000000e+00  1.0002952066724355e+00 0.0000000000000000e+00 0.0000000000000000e+00  9.9980400303497796e-01 0.0000000000000000e+00 0.0000000000000000e+00  1.0000001296257595e+00 0.0000000000000000e+00 0.0000000000000000e+00  1.0000001296257595e+00 0.0000000000000000e+00 0.0000000000000000e+00  1.0000001296257595e+00 0.0000000000000000e+00 0.0000000000000000e+00  1.0000001296257595e+00 0.0000000000000000e+00 0.0000000000000000e+00  1.0000001296257595e+00 0.0000000000000000e+00 0.0000000000000000e+00  1.0000001296257595e+00 0.0000000000000000e+00 0.0000000000000000e+00  1.0000001296257595e+00 0.0000000000000000e+00 0.0000000000000000e+00  1.0000001296257595e+00 0.0000000000000000e+00 0.0000000000000000e+00  1.0000001296257595e+00 0.0000000000000000e+00 0.0000000000000000e+00  1.0000001296257595e+00 0.0000000000000000e+00 0.0000000000000000e+00  1.0000001296257595e+00 0.0000000000000000e+00 0.0000000000000000e+00  1.0000001296257595e+00 0.0000000000000000e+00 0.0000000000000000e+00  1.0000001296257595e+00 0.0000000000000000e+00 0.0000000000000000e+00  1.0000001296257595e+00 0.0000000000000000e+00 0.0000000000000000e+00  1.0000001296257595e+00 0.0000000000000000e+00 0.0000000000000000e+00  1.0000001296257595e+00 0.0000000000000000e+00 0.0000000000000000e+00  1.0000001296257595e+00 0.0000000000000000e+00 0.0000000000000000e+00  1.0000001296257595e+00 0.0000000000000000e+00 0.0000000000000000e+00  1.0000001296257595e+00 0.0000000000000000e+00 0.0000000000000000e+00  1.0000001296257595e+00 0.0000000000000000e+00 0.0000000000000000e+00  1.0387761168590388e+00 -9.4819799414364043e-03 0.0000000000000000e+00  1.0355365126591358e+00 -1.9103572728744848e-02 0.0000000000000000e+00  1.0329197323862922e+00 -2.9309436746677610e-02 0.0000000000000000e+00  1.0266624890676401e+00 -3.9882542815040403e-02 0.0000000000000000e+00  1.0200595114509443e+00 -5.4285430023632085e-02 0.0000000000000000e+00  1.0242497731456697e+00 -5.7852561483615415e-02 0.0000000000000000e+00  1.0280841264780785e+00 -6.1517878378960264e-02 0.0000000000000000e+00  1.0329053793441081e+00 -6.4928229060939952e-02 0.0000000000000000e+00  1.0380023152524525e+00 -6.8223575749368062e-02 0.0000000000000000e+00  1.0437141229746512e+00 -7.1151597810231837e-02 0.0000000000000000e+00  1.0500018489695149e+00 -7.3763584177307426e-02 0.0000000000000000e+00  1.0567305047966435e+00 -7.5771189758420801e-02 0.0000000000000000e+00  1.0639657887928557e+00 -7.7280707042270691e-02 0.0000000000000000e+00  1.0713348592826191e+00 -7.7971150590201169e-02 0.0000000000000000e+00  1.0790286867176908e+00 -7.8072558556005464e-02 0.0000000000000000e+00  1.0867689146626782e+00 -7.7473207551551182e-02 0.0000000000000000e+00  1.0946092490673018e+00 -7.5888865935648725e-02 0.0000000000000000e+00  1.1021232586799865e+00 -7.3464201696903680e-02 0.0000000000000000e+00  1.1093899999190036e+00 -7.0429847748762750e-02 0.0000000000000000e+00  1.1162836657949482e+00 -6.6684794508958700e-02 0.0000000000000000e+00  1.1226454398856194e+00 -6.2316998481916575e-02 0.0000000000000000e+00  1.1284774710131240e+00 -5.7421969979466470e-02 0.0000000000000000e+00  1.1337875520992462e+00 -5.2155793263303794e-02 0.0000000000000000e+00  1.1385515115409912e+00 -4.6390802604457222e-02 0.0000000000000000e+00  1.1427936424650940e+00 -4.0501849550600717e-02 0.0000000000000000e+00  1.1465259303752275e+00 -3.4142295357620901e-02 0.0000000000000000e+00  1.1496979638348601e+00 -2.7511693047078723e-02 0.0000000000000000e+00  1.1524682395314705e+00 -2.0666533047812269e-02 0.0000000000000000e+00  1.1546439660581707e+00 -1.3541221226563345e-02 0.0000000000000000e+00  1.1562559598771120e+00 -6.0772896089053364e-03 0.0000000000000000e+00  1.1572077718577851e+00 1.7350055541464425e-03 0.0000000000000000e+00  1.1574063787953837e+00 9.8072518204057463e-03 0.0000000000000000e+00  1.1567768784213790e+00 1.8221782305835047e-02 0.0000000000000000e+00  1.1551799096291790e+00 2.6865725439778717e-02 0.0000000000000000e+00  1.1525188083341400e+00 3.5563456113148637e-02 0.0000000000000000e+00  1.1487330630871919e+00 4.4197537459737757e-02 0.00