<?xml version="1.0"?>
<VTKFile type="UnstructuredGrid"  version="0.1"  >
<UnstructuredGrid>
<Piece  NumberOfPoints="10199" NumberOfCells="20110">
<Points>
<DataArray  type="Float64"  NumberOfComponents="3"  format="ascii">0 -5 0  8 -5 0  30 -5 0  40 -5 0  40 5 0  30 5 0  8 5 0  0 5 0  8 -2.5 0  15 -2.5 0  30 -2.5 0  30 2.5 0  15 2.5 0  8 2.5 0  10 0.5 0  10 -0.5 0  0 0 0  0.4210526315780956 -5 0  0.8421052631563433 -5 0  1.263157894734281 -5 0  1.684210526311999 -5 0  2.105263157889717 -5 0  2.526315789467435 -5 0  2.947368421045153 -5 0  3.368421052622872 -5 0  3.78947368420059 -5 0  4.210526315779479 -5 0  4.631578947359537 -5 0  5.052631578939595 -5 0  5.473684210519653 -5 0  5.89473684209971 -5 0  6.315789473679768 -5 0  6.736842105259826 -5 0  7.157894736839884 -5 0  7.578947368419942 -5 0  8.407407407405314 -5 0  8.814814814810628 -5 0  9.222222222215942 -5 0  9.629629629621256 -5 0  10.03703703702657 -5 0  10.44444444443188 -5 0  10.8518518518372 -5 0  11.25925925924251 -5 0  11.66666666664783 -5 0  12.07407407405314 -5 0  12.48148148145846 -5 0  12.88888888886377 -5 0  13.29629629626908 -5 0  13.7037037036744 -5 0  14.11111111107971 -5 0  14.51851851848502 -5 0  14.92592592589034 -5 0  15.33333333329565 -5 0  15.74074074070096 -5 0  16.14814814810754 -5 0  16.55555555551614 -5 0  16.96296296292474 -5 0  17.37037037033335 -5 0  17.77777777774195 -5 0  18.18518518515056 -5 0  18.59259259255916 -5 0  18.99999999996776 -5 0  19.40740740737636 -5 0  19.81481481478497 -5 0  20.22222222219357 -5 0  20.62962962960217 -5 0  21.03703703701077 -5 0  21.44444444441937 -5 0  21.85185185182797 -5 0  22.25925925923657 -5 0  22.66666666664518 -5 0  23.07407407405378 -5 0  23.48148148146238 -5 0  23.88888888887098 -5 0  24.29629629627958 -5 0  24.70370370368818 -5 0  25.11111111109678 -5 0  25.51851851850539 -5 0  25.92592592591399 -5 0  26.33333333332259 -5 0  26.74074074073119 -5 0  27.14814814813979 -5 0  27.55555555554839 -5 0  27.96296296295699 -5 0  28.3703703703656 -5 0  28.7777777777742 -5 0  29.1851851851828 -5 0  29.5925925925914 -5 0  30.41666666667852 -5 0  30.83333333335704 -5 0  31.25000000003556 -5 0  31.66666666671408 -5 0  32.08333333338936 -5 0  32.50000000005308 -5 0  32.9166666667168 -5 0  33.33333333338052 -5 0  33.75000000004424 -5 0  34.16666666670795 -5 0  34.58333333337167 -5 0  35.00000000003539 -5 0  35.41666666669911 -5 0  35.83333333336282 -5 0  36.25000000002654 -5 0  36.66666666669026 -5 0  37.08333333335398 -5 0  37.50000000001769 -5 0  37.91666666668141 -5 0  38.33333333334513 -5 0  38.75000000000885 -5 0  39.16666666667257 -5 0  39.58333333333628 -5 0  40 -4.583333333332821 0  40 -4.166666666665642 0  40 -3.74999999999855 0  40 -3.333333333333135 0  40 -2.916666666667806 0  40 -2.500000000002478 0  40 -2.083333333337148 0  40 -1.666666666671818 0  40 -1.250000000006488 0  40 -0.8333333333405228 0  40 -0.4166666666733416 0  40 -6.163070054299169e-12 0  40 0.4166666666610173 0  40 0.8333333333281976 0  40 1.249999999995378 0  40 1.666666666662558 0  40 2.083333333329739 0  40 2.499999999996919 0  40 2.916666666664099 0  40 3.33333333333128 0  40 3.74999999999846 0  40 4.166666666665641 0  40 4.583333333332821 0  39.58333333333628 5 0  39.16666666667256 5 0  38.75000000000885 5 0  38.33333333334513 5 0  37.91666666668141 5 0  37.50000000001769 5 0  37.08333333335398 5 0  36.66666666669025 5 0  36.25000000002654 5 0  35.83333333336282 5 0  35.41666666669911 5 0  35.00000000003539 5 0  34.58333333337167 5 0  34.16666666670795 5 0  33.75000000004424 5 0  33.33333333338052 5 0  32.9166666667168 5 0  32.50000000005308 5 0  32.08333333338936 5 0  31.66666666671408 5 0  31.25000000003556 5 0  30.83333333335704 5 0  30.41666666667852 5 0  29.59259259259259 5 0  29.18518518518519 5 0  28.77777777777778 5 0  28.37037037037037 5 0  27.96296296296296 5 0  27.55555555555556 5 0  27.14814814814815 5 0  26.74074074074074 5 0  26.33333333333333 5 0  25.92592592592593 5 0  25.51851851851852 5 0  25.11111111111111 5 0  24.7037037037037 5 0  24.2962962962963 5 0  23.88888888888889 5 0  23.48148148148148 5 0  23.07407407407408 5 0  22.66666666666667 5 0  22.25925925925926 5 0  21.85185185185185 5 0  21.44444444444445 5 0  21.03703703703704 5 0  20.62962962962963 5 0  20.22222222222222 5 0  19.81481481481482 5 0  19.40740740740741 5 0  19 5 0  18.5925925925926 5 0  18.18518518518519 5 0  17.77777777777778 5 0  17.37037037037037 5 0  16.96296296296296 5 0  16.55555555555556 5 0  16.14814814814815 5 0  15.74074074074074 5 0  15.33333333333333 5 0  14.92592592592593 5 0  14.51851851851852 5 0  14.11111111111111 5 0  13.70370370370371 5 0  13.2962962962963 5 0  12.88888888888889 5 0  12.48148148148148 5 0  12.07407407407408 5 0  11.66666666666667 5 0  11.25925925925926 5 0  10.85185185185185 5 0  10.44444444444445 5 0  10.03703703703704 5 0  9.629629629629633 5 0  9.222222222222221 5 0  8.814814814814817 5 0  8.407407407407408 5 0  7.5789473684193 5 0  7.157894736838599 5 0  6.73684210526082 5 0  6.315789473684795 5 0  5.894736842108769 5 0  5.473684210532742 5 0  5.052631578956715 5 0  4.631578947380689 5 0  4.210526315804662 5 0  3.789473684226299 5 0  3.368421052645599 5 0  2.947368421064898 5 0  2.526315789484198 5 0  2.105263157903499 5 0  1.6842105263228 5 0  1.2631578947421 5 0  0.8421052631613994 5 0  0.4210526315806993 5 0  0 4.545454545454545 0  0 4.09090909090909 0  0 3.636363636363634 0  0 3.18181818181818 0  0 2.727272727272726 0  0 2.272727272727271 0  0 1.818181818181817 0  0 1.363636363636363 0  0 0.9090909090909092 0  0 0.454545454545455 0  0 -0.4545454545450807 0  0 -0.9090909090895867 0  0 -1.363636363633713 0  0 -1.818181818177841 0  0 -2.272727272723127 0  0 -2.727272727269273 0  0 -3.181818181815419 0  0 -3.636363636361564 0  0 -4.090909090907709 0  0 -4.545454545453855 0  8 -4.499999999999999 0  8 -3.999999999999999 0  8 -3.499999999999999 0  8 -3 0  8.137254901963859 -2.5 0  8.274509803926303 -2.5 0  8.411764705886863 -2.5 0  8.549019607849138 -2.5 0  8.686274509809513 -2.5 0  8.82352941176989 -2.5 0  8.960784313730265 -2.5 0  9.098039215690642 -2.5 0  9.235294117651017 -2.5 0  9.372549019611395 -2.5 0  9.50980392157177 -2.5 0  9.647058823532147 -2.5 0  9.784313725492522 -2.5 0  9.921568627452897 -2.5 0  10.05882352941327 -2.5 0  10.19607843137365 -2.5 0  10.33333333333402 -2.5 0  10.4705882352944 -2.5 0  10.60784313725478 -2.5 0  10.74509803921515 -2.5 0  10.88235294117553 -2.5 0  11.0196078431359 -2.5 0  11.15686274509628 -2.5 0  11.29411764705665 -2.5 0  11.43137254901703 -2.5 0  11.56862745097915 -2.5 0  11.70588235294301 -2.5 0  11.84313725490686 -2.5 0  11.98039215687072 -2.5 0  12.11764705883209 -2.5 0  12.25490196079247 -2.5 0  12.39215686275285 -2.5 0  12.52941176471322 -2.5 0  12.6666666666736 -2.5 0  12.80392156863397 -2.5 0  12.94117647059435 -2.5 0  13.07843137255473 -2.5 0  13.2156862745151 -2.5 0  13.35294117647548 -2.5 0  13.49019607843586 -2.5 0  13.62745098039623 -2.5 0  13.76470588235661 -2.5 0  13.90196078431699 -2.5 0  14.03921568627736 -2.5 0  14.17647058823774 -2.5 0  14.31372549019812 -2.5 0  14.45098039215849 -2.5 0  14.58823529411887 -2.5 0  14.72549019607925 -2.5 0  14.86274509803962 -2.5 0  15.20270270270254 -2.5 0  15.40540540540509 -2.5 0  15.60810810810763 -2.5 0  15.81081081081017 -2.5 0  16.01351351351227 -2.5 0  16.21621621621265 -2.5 0  16.41891891891279 -2.5 0  16.62162162161294 -2.5 0  16.82432432431308 -2.5 0  17.02702702701322 -2.5 0  17.22972972971337 -2.5 0  17.43243243241351 -2.5 0  17.63513513511365 -2.5 0  17.83783783781379 -2.5 0  18.04054054051394 -2.5 0  18.24324324321408 -2.5 0  18.44594594591422 -2.5 0  18.64864864861436 -2.5 0  18.85135135131451 -2.5 0  19.05405405401465 -2.5 0  19.25675675671479 -2.5 0  19.45945945941494 -2.5 0  19.66216216211508 -2.5 0  19.86486486481522 -2.5 0  20.06756756751536 -2.5 0  20.27027027021551 -2.5 0  20.47297297291565 -2.5 0  20.6756756756158 -2.5 0  20.87837837831594 -2.5 0  21.08108108101608 -2.5 0  21.28378378371622 -2.5 0  21.48648648641637 -2.5 0  21.68918918911651 -2.5 0  21.89189189181666 -2.5 0  22.0945945945168 -2.5 0  22.29729729721694 -2.5 0  22.49999999991778 -2.5 0  22.70270270262203 -2.5 0  22.90540540532697 -2.5 0  23.10810810803191 -2.5 0  23.31081081073686 -2.5 0  23.5135135134418 -2.5 0  23.71621621614674 -2.5 0  23.91891891885169 -2.5 0  24.12162162155663 -2.5 0  24.32432432426158 -2.5 0  24.52702702696652 -2.5 0  24.72972972967146 -2.5 0  24.93243243237641 -2.5 0  25.13513513508135 -2.5 0  25.3378378377863 -2.5 0  25.54054054049124 -2.5 0  25.74324324319618 -2.5 0  25.94594594590112 -2.5 0  26.14864864860607 -2.5 0  26.35135135131101 -2.5 0  26.55405405401596 -2.5 0  26.7567567567209 -2.5 0  26.95945945942584 -2.5 0  27.16216216213079 -2.5 0  27.36486486483573 -2.5 0  27.56756756754068 -2.5 0  27.77027027024562 -2.5 0  27.97297297295056 -2.5 0  28.1756756756555 -2.5 0  28.37837837836045 -2.5 0  28.5810810810654 -2.5 0  28.78378378377034 -2.5 0  28.98648648647528 -2.5 0  29.18918918918023 -2.5 0  29.39189189188517 -2.5 0  29.59459459459011 -2.5 0  29.79729729729506 -2.5 0  30 -3.000000000000001 0  30 -3.500000000000001 0  30 -4.000000000000001 0  30 -4.5 0  8 4.499999999999999 0  8 3.999999999999999 0  8 3.499999999999999 0  8 3 0  8.137254901963859 2.5 0  8.274509803926303 2.5 0  8.411764705886863 2.5 0  8.549019607849138 2.5 0  8.686274509809513 2.5 0  8.82352941176989 2.5 0  8.960784313730265 2.5 0  9.098039215690642 2.5 0  9.235294117651017 2.5 0  9.372549019611395 2.5 0  9.50980392157177 2.5 0  9.647058823532147 2.5 0  9.784313725492522 2.5 0  9.921568627452897 2.5 0  10.05882352941327 2.5 0  10.19607843137365 2.5 0  10.33333333333402 2.5 0  10.4705882352944 2.5 0  10.60784313725478 2.5 0  10.74509803921515 2.5 0  10.88235294117553 2.5 0  11.0196078431359 2.5 0  11.15686274509628 2.5 0  11.29411764705665 2.5 0  11.43137254901703 2.5 0  11.56862745097915 2.5 0  11.70588235294301 2.5 0  11.84313725490686 2.5 0  11.98039215687072 2.5 0  12.11764705883209 2.5 0  12.25490196079247 2.5 0  1
[...]
<PointData  Vectors="f_17"> 
<DataArray  type="Float64"  Name="f_17"  NumberOfComponents="3" format="ascii">1.0000001345731686e+00 0.0000000000000000e+00 0.0000000000000000e+00  1.0502275644292509e+00 0.0000000000000000e+00 0.0000000000000000e+00  9.9734407495224964e-01 0.0000000000000000e+00 0.0000000000000000e+00  9.9732220803667249e-01 0.0000000000000000e+00 0.0000000000000000e+00  9.9742299811512181e-01 0.0000000000000000e+00 0.0000000000000000e+00  9.9740026470261356e-01 0.0000000000000000e+00 0.0000000000000000e+00  1.0495532394957401e+00 0.0000000000000000e+00 0.0000000000000000e+00  1.0000001345731686e+00 0.0000000000000000e+00 0.0000000000000000e+00  1.0222146613765619e+00 -6.1127107967635604e-02 0.0000000000000000e+00  1.1358464349681079e+00 6.2348499246081303e-02 0.0000000000000000e+00  1.0020537470375908e+00 2.4117626536232098e-03 0.0000000000000000e+00  1.0017729492149978e+00 -2.4291121952621487e-03 0.0000000000000000e+00  1.1366140917773000e+00 -6.4564701254261989e-02 0.0000000000000000e+00  1.0218011152971347e+00 6.1042185525417875e-02 0.0000000000000000e+00  0.0000000000000000e+00 0.0000000000000000e+00 0.0000000000000000e+00  0.0000000000000000e+00 0.0000000000000000e+00 0.0000000000000000e+00  1.0000001345731686e+00 0.0000000000000000e+00 0.0000000000000000e+00  9.9931377975351332e-01 0.0000000000000000e+00 0.0000000000000000e+00  9.9879211035851301e-01 0.0000000000000000e+00 0.0000000000000000e+00  1.0008395809029553e+00 0.0000000000000000e+00 0.0000000000000000e+00  1.0007005405718306e+00 0.0000000000000000e+00 0.0000000000000000e+00  1.0017016050198875e+00 0.0000000000000000e+00 0.0000000000000000e+00  1.0020805308876879e+00 0.0000000000000000e+00 0.0000000000000000e+00  1.0024479834731470e+00 0.0000000000000000e+00 0.0000000000000000e+00  1.0033634758772669e+00 0.0000000000000000e+00 0.0000000000000000e+00  1.0047165475307642e+00 0.0000000000000000e+00 0.0000000000000000e+00  1.0060178480090840e+00 0.0000000000000000e+00 0.0000000000000000e+00  1.0077331068251070e+00 0.0000000000000000e+00 0.0000000000000000e+00  1.0102574565191411e+00 0.0000000000000000e+00 0.0000000000000000e+00  1.0130049750736709e+00 0.0000000000000000e+00 0.0000000000000000e+00  1.0174824539189029e+00 0.0000000000000000e+00 0.0000000000000000e+00  1.0199146462131297e+00 0.0000000000000000e+00 0.0000000000000000e+00  1.0254279218927296e+00 0.0000000000000000e+00 0.0000000000000000e+00  1.0333176927371672e+00 0.0000000000000000e+00 0.0000000000000000e+00  1.0402335133670186e+00 0.0000000000000000e+00 0.0000000000000000e+00  1.0606396895727890e+00 0.0000000000000000e+00 0.0000000000000000e+00  1.0720005440859297e+00 0.0000000000000000e+00 0.0000000000000000e+00  1.0834023355074294e+00 0.0000000000000000e+00 0.0000000000000000e+00  1.0959542270972631e+00 0.0000000000000000e+00 0.0000000000000000e+00  1.1074076581497543e+00 0.0000000000000000e+00 0.0000000000000000e+00  1.1185864632526838e+00 0.0000000000000000e+00 0.0000000000000000e+00  1.1294160866128944e+00 0.0000000000000000e+00 0.0000000000000000e+00  1.1374316799908448e+00 0.0000000000000000e+00 0.0000000000000000e+00  1.1442180533271353e+00 0.0000000000000000e+00 0.0000000000000000e+00  1.1486046263672103e+00 0.0000000000000000e+00 0.0000000000000000e+00  1.1511133336120092e+00 0.0000000000000000e+00 0.0000000000000000e+00  1.1504448489898986e+00 0.0000000000000000e+00 0.0000000000000000e+00  1.1488130445901157e+00 0.0000000000000000e+00 0.0000000000000000e+00  1.1448127155136925e+00 0.0000000000000000e+00 0.0000000000000000e+00  1.1393399929024548e+00 0.0000000000000000e+00 0.0000000000000000e+00  1.1329984769380110e+00 0.0000000000000000e+00 0.0000000000000000e+00  1.1254369610373818e+00 0.0000000000000000e+00 0.0000000000000000e+00  1.1174237674412313e+00 0.0000000000000000e+00 0.0000000000000000e+00  1.1084404984827534e+00 0.0000000000000000e+00 0.0000000000000000e+00  1.0991368991690667e+00 0.0000000000000000e+00 0.0000000000000000e+00  1.0907411654339474e+00 0.0000000000000000e+00 0.0000000000000000e+00  1.0831653094378673e+00 0.0000000000000000e+00 0.0000000000000000e+00  1.0744706306273637e+00 0.0000000000000000e+00 0.0000000000000000e+00  1.0672186963539771e+00 0.0000000000000000e+00 0.0000000000000000e+00  1.0602881388859902e+00 0.0000000000000000e+00 0.0000000000000000e+00  1.0539396689066374e+00 0.0000000000000000e+00 0.0000000000000000e+00  1.0485393480543561e+00 0.0000000000000000e+00 0.0000000000000000e+00  1.0434358786410811e+00 0.0000000000000000e+00 0.0000000000000000e+00  1.0388652373275304e+00 0.0000000000000000e+00 0.0000000000000000e+00  1.0351958310034932e+00 0.0000000000000000e+00 0.0000000000000000e+00  1.0312344641973730e+00 0.0000000000000000e+00 0.0000000000000000e+00  1.0274207288080064e+00 0.0000000000000000e+00 0.0000000000000000e+00  1.0254587673823714e+00 0.0000000000000000e+00 0.0000000000000000e+00  1.0226409945471242e+00 0.0000000000000000e+00 0.0000000000000000e+00  1.0198764506491342e+00 0.0000000000000000e+00 0.0000000000000000e+00  1.0182786291028465e+00 0.0000000000000000e+00 0.0000000000000000e+00  1.0159501384965979e+00 0.0000000000000000e+00 0.0000000000000000e+00  1.0135954981244757e+00 0.0000000000000000e+00 0.0000000000000000e+00  1.0128106580025824e+00 0.0000000000000000e+00 0.0000000000000000e+00  1.0111734960113949e+00 0.0000000000000000e+00 0.0000000000000000e+00  1.0095097078571760e+00 0.0000000000000000e+00 0.0000000000000000e+00  1.0086798880058589e+00 0.0000000000000000e+00 0.0000000000000000e+00  1.0072079393185678e+00 0.0000000000000000e+00 0.0000000000000000e+00  1.0058030100021822e+00 0.0000000000000000e+00 0.0000000000000000e+00  1.0051024561123065e+00 0.0000000000000000e+00 0.0000000000000000e+00  1.0035694295256961e+00 0.0000000000000000e+00 0.0000000000000000e+00  1.0018713384483602e+00 0.0000000000000000e+00 0.0000000000000000e+00  1.0026341316852001e+00 0.0000000000000000e+00 0.0000000000000000e+00  1.0015163997124776e+00 0.0000000000000000e+00 0.0000000000000000e+00  9.9894618146289027e-01 0.0000000000000000e+00 0.0000000000000000e+00  9.9751949014109509e-01 0.0000000000000000e+00 0.0000000000000000e+00  9.9782519050791818e-01 0.0000000000000000e+00 0.0000000000000000e+00  9.9731343082001511e-01 0.0000000000000000e+00 0.0000000000000000e+00  9.9712774830278950e-01 0.0000000000000000e+00 0.0000000000000000e+00  9.9622424386852237e-01 0.0000000000000000e+00 0.0000000000000000e+00  9.9535345160202970e-01 0.0000000000000000e+00 0.0000000000000000e+00  9.9540527219820751e-01 0.0000000000000000e+00 0.0000000000000000e+00  9.9550735866133211e-01 0.0000000000000000e+00 0.0000000000000000e+00  9.9524791143345426e-01 0.0000000000000000e+00 0.0000000000000000e+00  9.9507834013246743e-01 0.0000000000000000e+00 0.0000000000000000e+00  9.9522291379906969e-01 0.0000000000000000e+00 0.0000000000000000e+00  9.9541719543651208e-01 0.0000000000000000e+00 0.0000000000000000e+00  9.9517706375412829e-01 0.0000000000000000e+00 0.0000000000000000e+00  9.9546859691322898e-01 0.0000000000000000e+00 0.0000000000000000e+00  9.9556411553936397e-01 0.0000000000000000e+00 0.0000000000000000e+00  9.9538729519108482e-01 0.0000000000000000e+00 0.0000000000000000e+00  9.9570171471318603e-01 0.0000000000000000e+00 0.0000000000000000e+00  9.9590676482797547e-01 0.0000000000000000e+00 0.0000000000000000e+00  9.9659646149721104e-01 0.0000000000000000e+00 0.0000000000000000e+00  9.9631160790991480e-01 0.0000000000000000e+00 0.0000000000000000e+00  9.9652445801648748e-01 0.0000000000000000e+00 0.0000000000000000e+00  9.9640455384615600e-01 0.0000000000000000e+00 0.0000000000000000e+00  9.9693414687420068e-01 0.0000000000000000e+00 0.0000000000000000e+00  9.9682028371583564e-01 0.0000000000000000e+00 0.0000000000000000e+00  9.9729376844536466e-01 0.0000000000000000e+00 0.0000000000000000e+00  9.9689997523070972e-01 0.0000000000000000e+00 0.0000000000000000e+00  9.9780186328089471e-01 -5.9727761483831075e-05 0.0000000000000000e+00  9.9863877086757535e-01 -2.2065750724296977e-04 0.0000000000000000e+00  1.0001212102274633e+00 -2.8365744865598621e-04 0.0000000000000000e+00  1.0003803252592987e+00 -2.3939121200793252e-04 0.0000000000000000e+00  1.0012137746959051e+00 -2.8078780879163317e-04 0.0000000000000000e+00  1.0009633799301643e+00 -2.1413837474972005e-04 0.0000000000000000e+00  1.0007142624954477e+00 -1.5446168461280294e-04 0.0000000000000000e+00  1.0009483301855613e+00 -1.0986133127559480e-04 0.0000000000000000e+00  1.0006931539215849e+00 -1.0272645453940485e-04 0.0000000000000000e+00  1.0007589567648436e+00 7.3276123158627727e-05 0.0000000000000000e+00  1.0020235439746381e+00 -5.2051430359786031e-04 0.0000000000000000e+00  1.0023001928470621e+00 -3.3763511214539673e-04 0.0000000000000000e+00  1.0009243754136237e+00 -5.1788493876255297e-04 0.0000000000000000e+00  9.9981716781697594e-01 -3.9393956587131253e-04 0.0000000000000000e+00  1.0006616850043617e+00 1.7909433092305808e-04 0.0000000000000000e+00  1.0014787636396145e+00 5.0786708133965350e-04 0.0000000000000000e+00  1.0005393647117518e+00 -6.4815283829543905e-06 0.0000000000000000e+00  1.0000697168286019e+00 1.0876162198425635e-04 0.0000000000000000e+00  9.9933129840969515e-01 2.5298951585627074e-04 0.0000000000000000e+00  9.9948988256122950e-01 2.4754384303418198e-04 0.0000000000000000e+00  9.9879050139572989e-01 2.5414157026548863e-04 0.0000000000000000e+00  9.9870155376519221e-01 1.8081482465370045e-04 0.0000000000000000e+00  9.9802575282138284e-01 3.5526786825001005e-05 0.0000000000000000e+00  9.9715380030292822e-01 0.0000000000000000e+00 0.0000000000000000e+00  9.9701483986773964e-01 0.0000000000000000e+00 0.0000000000000000e+00  9.9687371722361229e-01 0.0000000000000000e+00 0.0000000000000000e+00  9.9704928420190098e-01 0.0000000000000000e+00 0.0000000000000000e+00  9.9659203374677863e-01 0.0000000000000000e+00 0.0000000000000000e+00  9.9661486282716227e-01 0.0000000000000000e+00 0.0000000000000000e+00  9.9681167982838259e-01 0.0000000000000000e+00 0.0000000000000000e+00  9.9708850485964529e-01 0.0000000000000000e+00 0.0000000000000000e+00  9.9667164393057250e-01 0.0000000000000000e+00 0.0000000000000000e+00  9.9655809584706212e-01 0.0000000000000000e+00 0.0000000000000000e+00  9.9632197631160702e-01 0.0000000000000000e+00 0.0000000000000000e+00  9.9597570167437965e-01 0.0000000000000000e+00 0.0000000000000000e+00  9.9571818191625294e-01 0.0000000000000000e+00 0.0000000000000000e+00  9.9617875977519788e-01 0.0000000000000000e+00 0.0000000000000000e+00  9.9589464247747583e-01 0.0000000000000000e+00 0.0000000000000000e+00  9.9657559138406471e-01 0.0000000000000000e+00 0.0000000000000000e+00  9.9598682156567242e-01 0.0000000000000000e+00 0.0000000000000000e+00  9.9595887102865965e-01 0.0000000000000000e+00 0.0000000000000000e+00  9.9570483675104049e-01 0.0000000000000000e+00 0.0000000000000000e+00  9.9610104913089792e-01 0.0000000000000000e+00 0.0000000000000000e+00  9.9633860263592888e-01 0.0000000000000000e+00 0.0000000000000000e+00  9.9630084571384425e-01 0.0000000000000000e+00 0.0000000000000000e+00  9.9691359611217523e-01 0.0000000000000000e+00 0.0000000000000000e+00  9.9728727838613906e-01 0.0000000000000000e+00 0.0000000000000000e+00  9.9798879629888748e-01 0.0000000000000000e+00 0.0000000000000000e+00  9.9771013638201578e-01 0.0000000000000000e+00 0.0000000000000000e+00  9.9905270185313355e-01 0.0000000000000000e+00 0.0000000000000000e+00  1.0012661776336260e+00 0.0000000000000000e+00 0.0000000000000000e+00  1.0023977244106688e+00 0.0000000000000000e+00 0.0000000000000000e+00  1.0017519438697389e+00 0.0000000000000000e+00 0.0000000000000000e+00  1.0033135795373527e+00 0.0000000000000000e+00 0.0000000000000000e+00  1.0048223672819367e+00 0.0000000000000000e+00 0.0000000000000000e+00  1.0055660931435670e+00 0.0000000000000000e+00 0.0000000000000000e+00  1.0069755725195415e+00 0.0000000000000000e+00 0.0000000000000000e+00  1.0084613251023116e+00 0.0000000000000000e+00 0.0000000000000000e+00  1.0093157499535819e+00 0.0000000000000000e+00 0.0000000000000000e+00  1.0110092101178501e+00 0.0000000000000000e+00 0.0000000000000000e+00  1.0126753919738449e+00 0.0000000000000000e+00 0.0000000000000000e+00  1.0135736747389565e+00 0.0000000000000000e+00 0.0000000000000000e+00  1.0158090306704242e+00 0.0000000000000000e+00 0.0000000000000000e+00  1.0180871746699882e+00 0.0000000000000000e+00 0.0000000000000000e+00  1.0196154912864808e+00 0.0000000000000000e+00 0.0000000000000000e+00  1.0222747942447092e+00 0.0000000000000000e+00 0.0000000000000000e+00  1.0250310395651483e+00 0.0000000000000000e+00 0.0000000000000000e+00  1.0269524973266519e+00 0.0000000000000000e+00 0.0000000000000000e+00  1.0307179675956673e+00 0.0000000000000000e+00 0.0000000000000000e+00  1.0346059467618698e+00 0.0000000000000000e+00 0.0000000000000000e+00  1.0381465674618962e+00 0.0000000000000000e+00 0.0000000000000000e+00  1.0426191106879568e+00 0.0000000000000000e+00 0.0000000000000000e+00  1.0475721805476768e+00 0.0000000000000000e+00 0.0000000000000000e+00  1.0528776076278863e+00 0.0000000000000000e+00 0.0000000000000000e+00  1.0590451690123175e+00 0.0000000000000000e+00 0.0000000000000000e+00  1.0659324182561767e+00 0.0000000000000000e+00 0.0000000000000000e+00  1.0730706202388636e+00 0.0000000000000000e+00 0.0000000000000000e+00  1.0816489179329964e+00 0.0000000000000000e+00 0.0000000000000000e+00  1.0892826905533322e+00 0.0000000000000000e+00 0.0000000000000000e+00  1.0978824327512156e+00 0.0000000000000000e+00 0.0000000000000000e+00  1.1071900233830920e+00 0.0000000000000000e+00 0.0000000000000000e+00  1.1164236132690171e+00 0.0000000000000000e+00 0.0000000000000000e+00  1.1245459971451004e+00 0.0000000000000000e+00 0.0000000000000000e+00  1.1317208783461139e+00 0.0000000000000000e+00 0.0000000000000000e+00  1.1381552541619262e+00 0.0000000000000000e+00 0.0000000000000000e+00  1.1441306890937135e+00 0.0000000000000000e+00 0.0000000000000000e+00  1.1480050768275736e+00 0.0000000000000000e+00 0.0000000000000000e+00  1.1495387216822137e+00 0.0000000000000000e+00 0.0000000000000000e+00  1.1505707369807516e+00 0.0000000000000000e+00 0.0000000000000000e+00  1.1478027219868936e+00 0.0000000000000000e+00 0.0000000000000000e+00  1.1437424365955691e+00 0.0000000000000000e+00 0.0000000000000000e+00  1.1371947475347273e+00 0.0000000000000000e+00 0.0000000000000000e+00  1.1282437060302912e+00 0.0000000000000000e+00 0.0000000000000000e+00  1.1178692863921518e+00 0.0000000000000000e+00 0.0000000000000000e+00  1.1066671422493100e+00 0.0000000000000000e+00 0.0000000000000000e+00  1.0949879262604711e+00 0.0000000000000000e+00 0.0000000000000000e+00  1.0823208568089770e+00 0.0000000000000000e+00 0.0000000000000000e+00  1.0711515912448049e+00 0.0000000000000000e+00 0.0000000000000000e+00  1.0598687855509381e+00 0.0000000000000000e+00 0.0000000000000000e+00  1.0398217469461433e+00 0.0000000000000000e+00 0.0000000000000000e+00  1.0315882102218348e+00 0.0000000000000000e+00 0.0000000000000000e+00  1.0251862158854608e+00 0.0000000000000000e+00 0.0000000000000000e+00  1.0194464393254918e+00 0.0000000000000000e+00 0.0000000000000000e+00  1.0149072156369605e+00 0.0000000000000000e+00 0.0000000000000000e+00  1.0113246538165217e+00 0.0000000000000000e+00 0.0000000000000000e+00  1.0085700449649424e+00 0.0000000000000000e+00 0.0000000000000000e+00  1.0060236161011895e+00 0.0000000000000000e+00 0.0000000000000000e+00  1.0042450504132459e+00 0.0000000000000000e+00 0.0000000000000000e+00  1.0030144914048000e+00 0.0000000000000000e+00 0.0000000000000000e+00  1.0016654576129764e+00 0.0000000000000000e+00 0.0000000000000000e+00  1.0014153782466668e+00 0.0000000000000000e+00 0.0000000000000000e+00  1.0003035681702808e+00 0.0000000000000000e+00 0.0000000000000000e+00  1.0002455693889842e+00 0.0000000000000000e+00 0.0000000000000000e+00  9.9981811609422477e-01 0.0000000000000000e+00 0.0000000000000000e+00  1.0005073653626502e+00 0.0000000000000000e+00 0.0000000000000000e+00  1.0002553150456037e+00 0.0000000000000000e+00 0.0000000000000000e+00  9.9979580756971909e-01 0.0000000000000000e+00 0.0000000000000000e+00  1.0000001345731686e+00 0.0000000000000000e+00 0.0000000000000000e+00  1.0000001345731686e+00 0.0000000000000000e+00 0.0000000000000000e+00  1.0000001345731686e+00 0.0000000000000000e+00 0.0000000000000000e+00  1.0000001345731686e+00 0.0000000000000000e+00 0.0000000000000000e+00  1.0000001345731686e+00 0.0000000000000000e+00 0.0000000000000000e+00  1.0000001345731686e+00 0.0000000000000000e+00 0.0000000000000000e+00  1.0000001345731686e+00 0.0000000000000000e+00 0.0000000000000000e+00  1.0000001345731686e+00 0.0000000000000000e+00 0.0000000000000000e+00  1.0000001345731686e+00 0.0000000000000000e+00 0.0000000000000000e+00  1.0000001345731686e+00 0.0000000000000000e+00 0.0000000000000000e+00  1.0000001345731686e+00 0.0000000000000000e+00 0.0000000000000000e+00  1.0000001345731686e+00 0.0000000000000000e+00 0.0000000000000000e+00  1.0000001345731686e+00 0.0000000000000000e+00 0.0000000000000000e+00  1.0000001345731686e+00 0.0000000000000000e+00 0.0000000000000000e+00  1.0000001345731686e+00 0.0000000000000000e+00 0.0000000000000000e+00  1.0000001345731686e+00 0.0000000000000000e+00 0.0000000000000000e+00  1.0000001345731686e+00 0.0000000000000000e+00 0.0000000000000000e+00  1.0000001345731686e+00 0.0000000000000000e+00 0.0000000000000000e+00  1.0000001345731686e+00 0.0000000000000000e+00 0.0000000000000000e+00  1.0000001345731686e+00 0.0000000000000000e+00 0.0000000000000000e+00  1.0493345690576865e+00 -1.2056402676252128e-02 0.0000000000000000e+00  1.0453271704340061e+00 -2.4111969429928989e-02 0.0000000000000000e+00  1.0414019438846034e+00 -3.6466315522865937e-02 0.0000000000000000e+00  1.0334420593159408e+00 -4.9027279030973071e-02 0.0000000000000000e+00  1.0249945449209976e+00 -6.5750848343585896e-02 0.0000000000000000e+00  1.0296554155111821e+00 -7.0036330513072328e-02 0.0000000000000000e+00  1.0338974671167565e+00 -7.4469370492397394e-02 0.0000000000000000e+00  1.0392208098733318e+00 -7.8674454541668895e-02 0.0000000000000000e+00  1.0448439794098279e+00 -8.2808907440469814e-02 0.0000000000000000e+00  1.0511379614192362e+00 -8.6626067887136962e-02 0.0000000000000000e+00  1.0580619415916186e+00 -9.0172435829678307e-02 0.0000000000000000e+00  1.0655127765990147e+00 -9.3144640234930229e-02 0.0000000000000000e+00  1.0735219033638383e+00 -9.5691908476419493e-02 0.0000000000000000e+00  1.0817630769316982e+00 -9.7455743301330819e-02 0.0000000000000000e+00  1.0904154026855173e+00 -9.8671349640533854e-02 0.0000000000000000e+00  1.0992472648254081e+00 -9.9188422678462895e-02 0.0000000000000000e+00  1.1082521067424278e+00 -9.8764348214787759e-02 0.0000000000000000e+00  1.1170380961226218e+00 -9.7525959019438793e-02 0.0000000000000000e+00  1.1257117145845241e+00 -9.5637362924000408e-02 0.0000000000000000e+00  1.1341174286865809e+00 -9.3022065675414795e-02 0.0000000000000000e+00  1.1420469844152845e+00 -8.9692899468157991e-02 0.0000000000000000e+00  1.1495693100720634e+00 -8.5822105889613365e-02 0.0000000000000000e+00  1.1565221883545675e+00 -8.1478112934552260e-02 0.0000000000000000e+00  1.1629807116876456e+00 -7.6604719217845396e-02 0.0000000000000000e+00  1.1688735790021600e+00 -7.1560282858617472e-02 0.0000000000000000e+00  1.1742279849813526e+00 -6.6154004382734777e-02 0.0000000000000000e+00  1.1789082350270776e+00 -6.0483719293399463e-02 0.0000000000000000e+00  1.1831738629579083e+00 -5.4721604339866357e-02 0.0000000000000000e+00  1.1867798199030186e+00 -4.8879396339898060e-02 0.0000000000000000e+00  1.1899011898304652e+00 -4.2949869284688157e-02 0.0000000000000000e+00  1.1924685769970764e+00 -3.6989002023560279e-02 0.0000000000000000e+00  1.1945085288280874e+00 -3.1083969535918327e-02 0.0000000000000000e+00  1.1960985190165694e+00 -2.5114150162092851e-02 0.0000000000000000e+00  1.1971730642417984e+00 -1.9151940843368520e-02 0.0000000000000000e+00  1.1977954163994633e+00 -1.3278085166907318e-02 0.0000000000000000e+00  1.1979596777389172e+00 -7.4891