<?xml version="1.0"?>
<VTKFile type="UnstructuredGrid"  version="0.1"  >
<UnstructuredGrid>
<Piece  NumberOfPoints="10199" NumberOfCells="20110">
<Points>
<DataArray  type="Float64"  NumberOfComponents="3"  format="ascii">0 -5 0  8 -5 0  30 -5 0  40 -5 0  40 5 0  30 5 0  8 5 0  0 5 0  8 -2.5 0  15 -2.5 0  30 -2.5 0  30 2.5 0  15 2.5 0  8 2.5 0  10 0.5 0  10 -0.5 0  0 0 0  0.4210526315780956 -5 0  0.8421052631563433 -5 0  1.263157894734281 -5 0  1.684210526311999 -5 0  2.105263157889717 -5 0  2.526315789467435 -5 0  2.947368421045153 -5 0  3.368421052622872 -5 0  3.78947368420059 -5 0  4.210526315779479 -5 0  4.631578947359537 -5 0  5.052631578939595 -5 0  5.473684210519653 -5 0  5.89473684209971 -5 0  6.315789473679768 -5 0  6.736842105259826 -5 0  7.157894736839884 -5 0  7.578947368419942 -5 0  8.407407407405314 -5 0  8.814814814810628 -5 0  9.222222222215942 -5 0  9.629629629621256 -5 0  10.03703703702657 -5 0  10.44444444443188 -5 0  10.8518518518372 -5 0  11.25925925924251 -5 0  11.66666666664783 -5 0  12.07407407405314 -5 0  12.48148148145846 -5 0  12.88888888886377 -5 0  13.29629629626908 -5 0  13.7037037036744 -5 0  14.11111111107971 -5 0  14.51851851848502 -5 0  14.92592592589034 -5 0  15.33333333329565 -5 0  15.74074074070096 -5 0  16.14814814810754 -5 0  16.55555555551614 -5 0  16.96296296292474 -5 0  17.37037037033335 -5 0  17.77777777774195 -5 0  18.18518518515056 -5 0  18.59259259255916 -5 0  18.99999999996776 -5 0  19.40740740737636 -5 0  19.81481481478497 -5 0  20.22222222219357 -5 0  20.62962962960217 -5 0  21.03703703701077 -5 0  21.44444444441937 -5 0  21.85185185182797 -5 0  22.25925925923657 -5 0  22.66666666664518 -5 0  23.07407407405378 -5 0  23.48148148146238 -5 0  23.88888888887098 -5 0  24.29629629627958 -5 0  24.70370370368818 -5 0  25.11111111109678 -5 0  25.51851851850539 -5 0  25.92592592591399 -5 0  26.33333333332259 -5 0  26.74074074073119 -5 0  27.14814814813979 -5 0  27.55555555554839 -5 0  27.96296296295699 -5 0  28.3703703703656 -5 0  28.7777777777742 -5 0  29.1851851851828 -5 0  29.5925925925914 -5 0  30.41666666667852 -5 0  30.83333333335704 -5 0  31.25000000003556 -5 0  31.66666666671408 -5 0  32.08333333338936 -5 0  32.50000000005308 -5 0  32.9166666667168 -5 0  33.33333333338052 -5 0  33.75000000004424 -5 0  34.16666666670795 -5 0  34.58333333337167 -5 0  35.00000000003539 -5 0  35.41666666669911 -5 0  35.83333333336282 -5 0  36.25000000002654 -5 0  36.66666666669026 -5 0  37.08333333335398 -5 0  37.50000000001769 -5 0  37.91666666668141 -5 0  38.33333333334513 -5 0  38.75000000000885 -5 0  39.16666666667257 -5 0  39.58333333333628 -5 0  40 -4.583333333332821 0  40 -4.166666666665642 0  40 -3.74999999999855 0  40 -3.333333333333135 0  40 -2.916666666667806 0  40 -2.500000000002478 0  40 -2.083333333337148 0  40 -1.666666666671818 0  40 -1.250000000006488 0  40 -0.8333333333405228 0  40 -0.4166666666733416 0  40 -6.163070054299169e-12 0  40 0.4166666666610173 0  40 0.8333333333281976 0  40 1.249999999995378 0  40 1.666666666662558 0  40 2.083333333329739 0  40 2.499999999996919 0  40 2.916666666664099 0  40 3.33333333333128 0  40 3.74999999999846 0  40 4.166666666665641 0  40 4.583333333332821 0  39.58333333333628 5 0  39.16666666667256 5 0  38.75000000000885 5 0  38.33333333334513 5 0  37.91666666668141 5 0  37.50000000001769 5 0  37.08333333335398 5 0  36.66666666669025 5 0  36.25000000002654 5 0  35.83333333336282 5 0  35.41666666669911 5 0  35.00000000003539 5 0  34.58333333337167 5 0  34.16666666670795 5 0  33.75000000004424 5 0  33.33333333338052 5 0  32.9166666667168 5 0  32.50000000005308 5 0  32.08333333338936 5 0  31.66666666671408 5 0  31.25000000003556 5 0  30.83333333335704 5 0  30.41666666667852 5 0  29.59259259259259 5 0  29.18518518518519 5 0  28.77777777777778 5 0  28.37037037037037 5 0  27.96296296296296 5 0  27.55555555555556 5 0  27.14814814814815 5 0  26.74074074074074 5 0  26.33333333333333 5 0  25.92592592592593 5 0  25.51851851851852 5 0  25.11111111111111 5 0  24.7037037037037 5 0  24.2962962962963 5 0  23.88888888888889 5 0  23.48148148148148 5 0  23.07407407407408 5 0  22.66666666666667 5 0  22.25925925925926 5 0  21.85185185185185 5 0  21.44444444444445 5 0  21.03703703703704 5 0  20.62962962962963 5 0  20.22222222222222 5 0  19.81481481481482 5 0  19.40740740740741 5 0  19 5 0  18.5925925925926 5 0  18.18518518518519 5 0  17.77777777777778 5 0  17.37037037037037 5 0  16.96296296296296 5 0  16.55555555555556 5 0  16.14814814814815 5 0  15.74074074074074 5 0  15.33333333333333 5 0  14.92592592592593 5 0  14.51851851851852 5 0  14.11111111111111 5 0  13.70370370370371 5 0  13.2962962962963 5 0  12.88888888888889 5 0  12.48148148148148 5 0  12.07407407407408 5 0  11.66666666666667 5 0  11.25925925925926 5 0  10.85185185185185 5 0  10.44444444444445 5 0  10.03703703703704 5 0  9.629629629629633 5 0  9.222222222222221 5 0  8.814814814814817 5 0  8.407407407407408 5 0  7.5789473684193 5 0  7.157894736838599 5 0  6.73684210526082 5 0  6.315789473684795 5 0  5.894736842108769 5 0  5.473684210532742 5 0  5.052631578956715 5 0  4.631578947380689 5 0  4.210526315804662 5 0  3.789473684226299 5 0  3.368421052645599 5 0  2.947368421064898 5 0  2.526315789484198 5 0  2.105263157903499 5 0  1.6842105263228 5 0  1.2631578947421 5 0  0.8421052631613994 5 0  0.4210526315806993 5 0  0 4.545454545454545 0  0 4.09090909090909 0  0 3.636363636363634 0  0 3.18181818181818 0  0 2.727272727272726 0  0 2.272727272727271 0  0 1.818181818181817 0  0 1.363636363636363 0  0 0.9090909090909092 0  0 0.454545454545455 0  0 -0.4545454545450807 0  0 -0.9090909090895867 0  0 -1.363636363633713 0  0 -1.818181818177841 0  0 -2.272727272723127 0  0 -2.727272727269273 0  0 -3.181818181815419 0  0 -3.636363636361564 0  0 -4.090909090907709 0  0 -4.545454545453855 0  8 -4.499999999999999 0  8 -3.999999999999999 0  8 -3.499999999999999 0  8 -3 0  8.137254901963859 -2.5 0  8.274509803926303 -2.5 0  8.411764705886863 -2.5 0  8.549019607849138 -2.5 0  8.686274509809513 -2.5 0  8.82352941176989 -2.5 0  8.960784313730265 -2.5 0  9.098039215690642 -2.5 0  9.235294117651017 -2.5 0  9.372549019611395 -2.5 0  9.50980392157177 -2.5 0  9.647058823532147 -2.5 0  9.784313725492522 -2.5 0  9.921568627452897 -2.5 0  10.05882352941327 -2.5 0  10.19607843137365 -2.5 0  10.33333333333402 -2.5 0  10.4705882352944 -2.5 0  10.60784313725478 -2.5 0  10.74509803921515 -2.5 0  10.88235294117553 -2.5 0  11.0196078431359 -2.5 0  11.15686274509628 -2.5 0  11.29411764705665 -2.5 0  11.43137254901703 -2.5 0  11.56862745097915 -2.5 0  11.70588235294301 -2.5 0  11.84313725490686 -2.5 0  11.98039215687072 -2.5 0  12.11764705883209 -2.5 0  12.25490196079247 -2.5 0  12.39215686275285 -2.5 0  12.52941176471322 -2.5 0  12.6666666666736 -2.5 0  12.80392156863397 -2.5 0  12.94117647059435 -2.5 0  13.07843137255473 -2.5 0  13.2156862745151 -2.5 0  13.35294117647548 -2.5 0  13.49019607843586 -2.5 0  13.62745098039623 -2.5 0  13.76470588235661 -2.5 0  13.90196078431699 -2.5 0  14.03921568627736 -2.5 0  14.17647058823774 -2.5 0  14.31372549019812 -2.5 0  14.45098039215849 -2.5 0  14.58823529411887 -2.5 0  14.72549019607925 -2.5 0  14.86274509803962 -2.5 0  15.20270270270254 -2.5 0  15.40540540540509 -2.5 0  15.60810810810763 -2.5 0  15.81081081081017 -2.5 0  16.01351351351227 -2.5 0  16.21621621621265 -2.5 0  16.41891891891279 -2.5 0  16.62162162161294 -2.5 0  16.82432432431308 -2.5 0  17.02702702701322 -2.5 0  17.22972972971337 -2.5 0  17.43243243241351 -2.5 0  17.63513513511365 -2.5 0  17.83783783781379 -2.5 0  18.04054054051394 -2.5 0  18.24324324321408 -2.5 0  18.44594594591422 -2.5 0  18.64864864861436 -2.5 0  18.85135135131451 -2.5 0  19.05405405401465 -2.5 0  19.25675675671479 -2.5 0  19.45945945941494 -2.5 0  19.66216216211508 -2.5 0  19.86486486481522 -2.5 0  20.06756756751536 -2.5 0  20.27027027021551 -2.5 0  20.47297297291565 -2.5 0  20.6756756756158 -2.5 0  20.87837837831594 -2.5 0  21.08108108101608 -2.5 0  21.28378378371622 -2.5 0  21.48648648641637 -2.5 0  21.68918918911651 -2.5 0  21.89189189181666 -2.5 0  22.0945945945168 -2.5 0  22.29729729721694 -2.5 0  22.49999999991778 -2.5 0  22.70270270262203 -2.5 0  22.90540540532697 -2.5 0  23.10810810803191 -2.5 0  23.31081081073686 -2.5 0  23.5135135134418 -2.5 0  23.71621621614674 -2.5 0  23.91891891885169 -2.5 0  24.12162162155663 -2.5 0  24.32432432426158 -2.5 0  24.52702702696652 -2.5 0  24.72972972967146 -2.5 0  24.93243243237641 -2.5 0  25.13513513508135 -2.5 0  25.3378378377863 -2.5 0  25.54054054049124 -2.5 0  25.74324324319618 -2.5 0  25.94594594590112 -2.5 0  26.14864864860607 -2.5 0  26.35135135131101 -2.5 0  26.55405405401596 -2.5 0  26.7567567567209 -2.5 0  26.95945945942584 -2.5 0  27.16216216213079 -2.5 0  27.36486486483573 -2.5 0  27.56756756754068 -2.5 0  27.77027027024562 -2.5 0  27.97297297295056 -2.5 0  28.1756756756555 -2.5 0  28.37837837836045 -2.5 0  28.5810810810654 -2.5 0  28.78378378377034 -2.5 0  28.98648648647528 -2.5 0  29.18918918918023 -2.5 0  29.39189189188517 -2.5 0  29.59459459459011 -2.5 0  29.79729729729506 -2.5 0  30 -3.000000000000001 0  30 -3.500000000000001 0  30 -4.000000000000001 0  30 -4.5 0  8 4.499999999999999 0  8 3.999999999999999 0  8 3.499999999999999 0  8 3 0  8.137254901963859 2.5 0  8.274509803926303 2.5 0  8.411764705886863 2.5 0  8.549019607849138 2.5 0  8.686274509809513 2.5 0  8.82352941176989 2.5 0  8.960784313730265 2.5 0  9.098039215690642 2.5 0  9.235294117651017 2.5 0  9.372549019611395 2.5 0  9.50980392157177 2.5 0  9.647058823532147 2.5 0  9.784313725492522 2.5 0  9.921568627452897 2.5 0  10.05882352941327 2.5 0  10.19607843137365 2.5 0  10.33333333333402 2.5 0  10.4705882352944 2.5 0  10.60784313725478 2.5 0  10.74509803921515 2.5 0  10.88235294117553 2.5 0  11.0196078431359 2.5 0  11.15686274509628 2.5 0  11.29411764705665 2.5 0  11.43137254901703 2.5 0  11.56862745097915 2.5 0  11.70588235294301 2.5 0  11.84313725490686 2.5 0  11.98039215687072 2.5 0  12.11764705883209 2.5 0  12.25490196079247 2.5 0  1
[...]
<PointData  Vectors="f_17"> 
<DataArray  type="Float64"  Name="f_17"  NumberOfComponents="3" format="ascii">1.0000001316409168e+00 0.0000000000000000e+00 0.0000000000000000e+00  1.0481805624150802e+00 0.0000000000000000e+00 0.0000000000000000e+00  9.9661980675775608e-01 0.0000000000000000e+00 0.0000000000000000e+00  9.9884090558060923e-01 0.0000000000000000e+00 0.0000000000000000e+00  9.9886781963678328e-01 0.0000000000000000e+00 0.0000000000000000e+00  9.9684519384055881e-01 0.0000000000000000e+00 0.0000000000000000e+00  1.0475211816704870e+00 0.0000000000000000e+00 0.0000000000000000e+00  1.0000001316409168e+00 0.0000000000000000e+00 0.0000000000000000e+00  1.0222567880076421e+00 -5.9007845384169762e-02 0.0000000000000000e+00  1.0722910494433373e+00 6.7929906054634365e-02 0.0000000000000000e+00  1.0010964305424179e+00 4.5227611701268373e-05 0.0000000000000000e+00  1.0008414426633525e+00 -1.3384805124917024e-04 0.0000000000000000e+00  1.0724852313768121e+00 -6.8427797113813402e-02 0.0000000000000000e+00  1.0218606042768199e+00 5.8938974077173550e-02 0.0000000000000000e+00  0.0000000000000000e+00 0.0000000000000000e+00 0.0000000000000000e+00  0.0000000000000000e+00 0.0000000000000000e+00 0.0000000000000000e+00  1.0000001316409168e+00 0.0000000000000000e+00 0.0000000000000000e+00  9.9930938340403141e-01 0.0000000000000000e+00 0.0000000000000000e+00  9.9878341084908717e-01 0.0000000000000000e+00 0.0000000000000000e+00  1.0008314565361269e+00 0.0000000000000000e+00 0.0000000000000000e+00  1.0006824799280067e+00 0.0000000000000000e+00 0.0000000000000000e+00  1.0016759686940779e+00 0.0000000000000000e+00 0.0000000000000000e+00  1.0020425426374753e+00 0.0000000000000000e+00 0.0000000000000000e+00  1.0023916816244114e+00 0.0000000000000000e+00 0.0000000000000000e+00  1.0032835881817579e+00 0.0000000000000000e+00 0.0000000000000000e+00  1.0046051311779465e+00 0.0000000000000000e+00 0.0000000000000000e+00  1.0058616846407815e+00 0.0000000000000000e+00 0.0000000000000000e+00  1.0075208201786854e+00 0.0000000000000000e+00 0.0000000000000000e+00  1.0099726041448169e+00 0.0000000000000000e+00 0.0000000000000000e+00  1.0126240274540348e+00 0.0000000000000000e+00 0.0000000000000000e+00  1.0169773443687924e+00 0.0000000000000000e+00 0.0000000000000000e+00  1.0192359853151771e+00 0.0000000000000000e+00 0.0000000000000000e+00  1.0245234558428196e+00 0.0000000000000000e+00 0.0000000000000000e+00  1.0321335462840628e+00 0.0000000000000000e+00 0.0000000000000000e+00  1.0386875131708828e+00 0.0000000000000000e+00 0.0000000000000000e+00  1.0579766302561253e+00 0.0000000000000000e+00 0.0000000000000000e+00  1.0685638440418952e+00 0.0000000000000000e+00 0.0000000000000000e+00  1.0789713818176374e+00 0.0000000000000000e+00 0.0000000000000000e+00  1.0902418710226074e+00 0.0000000000000000e+00 0.0000000000000000e+00  1.1001275321565505e+00 0.0000000000000000e+00 0.0000000000000000e+00  1.1093382195264052e+00 0.0000000000000000e+00 0.0000000000000000e+00  1.1178179515816453e+00 0.0000000000000000e+00 0.0000000000000000e+00  1.1231060074274608e+00 0.0000000000000000e+00 0.0000000000000000e+00  1.1266964387756442e+00 0.0000000000000000e+00 0.0000000000000000e+00  1.1275967363763830e+00 0.0000000000000000e+00 0.0000000000000000e+00  1.1263604958934155e+00 0.0000000000000000e+00 0.0000000000000000e+00  1.1218352969072705e+00 0.0000000000000000e+00 0.0000000000000000e+00  1.1163631265080980e+00 0.0000000000000000e+00 0.0000000000000000e+00  1.1088544527051072e+00 0.0000000000000000e+00 0.0000000000000000e+00  1.1002641183790116e+00 0.0000000000000000e+00 0.0000000000000000e+00  1.0914383232214648e+00 0.0000000000000000e+00 0.0000000000000000e+00  1.0821656078137465e+00 0.0000000000000000e+00 0.0000000000000000e+00  1.0732034424326171e+00 0.0000000000000000e+00 0.0000000000000000e+00  1.0641520095539605e+00 0.0000000000000000e+00 0.0000000000000000e+00  1.0553978340176233e+00 0.0000000000000000e+00 0.0000000000000000e+00  1.0481982181801768e+00 0.0000000000000000e+00 0.0000000000000000e+00  1.0420942489441338e+00 0.0000000000000000e+00 0.0000000000000000e+00  1.0353936627913729e+00 0.0000000000000000e+00 0.0000000000000000e+00  1.0301360165838365e+00 0.0000000000000000e+00 0.0000000000000000e+00  1.0254024227975087e+00 0.0000000000000000e+00 0.0000000000000000e+00  1.0211473678113816e+00 0.0000000000000000e+00 0.0000000000000000e+00  1.0178663045413239e+00 0.0000000000000000e+00 0.0000000000000000e+00  1.0146604864438105e+00 0.0000000000000000e+00 0.0000000000000000e+00  1.0118903125420327e+00 0.0000000000000000e+00 0.0000000000000000e+00  1.0098548024064811e+00 0.0000000000000000e+00 0.0000000000000000e+00  1.0073644542013314e+00 0.0000000000000000e+00 0.0000000000000000e+00  1.0050073598821254e+00 0.0000000000000000e+00 0.0000000000000000e+00  1.0043647511502174e+00 0.0000000000000000e+00 0.0000000000000000e+00  1.0028434794719296e+00 0.0000000000000000e+00 0.0000000000000000e+00  1.0013295545869167e+00 0.0000000000000000e+00 0.0000000000000000e+00  1.0009298699790719e+00 0.0000000000000000e+00 0.0000000000000000e+00  9.9978311293459321e-01 0.0000000000000000e+00 0.0000000000000000e+00  9.9859356116511366e-01 0.0000000000000000e+00 0.0000000000000000e+00  9.9893222433475548e-01 0.0000000000000000e+00 0.0000000000000000e+00  9.9839039455293110e-01 0.0000000000000000e+00 0.0000000000000000e+00  9.9781339532419078e-01 0.0000000000000000e+00 0.0000000000000000e+00  9.9805690901785271e-01 0.0000000000000000e+00 0.0000000000000000e+00  9.9763606164938079e-01 0.0000000000000000e+00 0.0000000000000000e+00  9.9724988447443697e-01 0.0000000000000000e+00 0.0000000000000000e+00  9.9753070972685931e-01 0.0000000000000000e+00 0.0000000000000000e+00  9.9694507312047320e-01 0.0000000000000000e+00 0.0000000000000000e+00  9.9616494790149945e-01 0.0000000000000000e+00 0.0000000000000000e+00  9.9781071112113440e-01 0.0000000000000000e+00 0.0000000000000000e+00  9.9753983127676249e-01 0.0000000000000000e+00 0.0000000000000000e+00  9.9576531374685362e-01 0.0000000000000000e+00 0.0000000000000000e+00  9.9506545619191267e-01 0.0000000000000000e+00 0.0000000000000000e+00  9.9603496101199940e-01 0.0000000000000000e+00 0.0000000000000000e+00  9.9610619590600569e-01 0.0000000000000000e+00 0.0000000000000000e+00  9.9679957589542545e-01 0.0000000000000000e+00 0.0000000000000000e+00  9.9622942494430444e-01 0.0000000000000000e+00 0.0000000000000000e+00  9.9563743644820957e-01 0.0000000000000000e+00 0.0000000000000000e+00  9.9591649034681595e-01 0.0000000000000000e+00 0.0000000000000000e+00  9.9620965751209734e-01 0.0000000000000000e+00 0.0000000000000000e+00  9.9611019508501875e-01 0.0000000000000000e+00 0.0000000000000000e+00  9.9607616860418791e-01 0.0000000000000000e+00 0.0000000000000000e+00  9.9633792311739666e-01 0.0000000000000000e+00 0.0000000000000000e+00  9.9662628706028200e-01 0.0000000000000000e+00 0.0000000000000000e+00  9.9645790178419014e-01 0.0000000000000000e+00 0.0000000000000000e+00  9.9679443475815477e-01 0.0000000000000000e+00 0.0000000000000000e+00  9.9690720586092740e-01 0.0000000000000000e+00 0.0000000000000000e+00  9.9672717388919729e-01 0.0000000000000000e+00 0.0000000000000000e+00  9.9701939859849342e-01 0.0000000000000000e+00 0.0000000000000000e+00  9.9718295844455174e-01 0.0000000000000000e+00 0.0000000000000000e+00  9.9784290753972560e-01 0.0000000000000000e+00 0.0000000000000000e+00  9.9754319656248158e-01 0.0000000000000000e+00 0.0000000000000000e+00  9.9775723736496513e-01 0.0000000000000000e+00 0.0000000000000000e+00  9.9765688793270846e-01 0.0000000000000000e+00 0.0000000000000000e+00  9.9821652875680755e-01 0.0000000000000000e+00 0.0000000000000000e+00  9.9813956929979819e-01 0.0000000000000000e+00 0.0000000000000000e+00  9.9866541182351898e-01 0.0000000000000000e+00 0.0000000000000000e+00  9.9833292984460187e-01 0.0000000000000000e+00 0.0000000000000000e+00  9.9913757896914568e-01 -1.5524613558836329e-04 0.0000000000000000e+00  9.9951219039729788e-01 -3.6879011565533581e-04 0.0000000000000000e+00  1.0004511438338093e+00 -4.4282031784416464e-04 0.0000000000000000e+00  1.0002696566951383e+00 -3.8276926629193987e-04 0.0000000000000000e+00  1.0008395489187181e+00 -3.9532648974357956e-04 0.0000000000000000e+00  1.0004687889984580e+00 -2.9937714511438446e-04 0.0000000000000000e+00  1.0002070446656643e+00 -2.1429825681354783e-04 0.0000000000000000e+00  1.0004896439022499e+00 -1.4822784754907418e-04 0.0000000000000000e+00  1.0002805810725581e+00 -1.2679113717958419e-04 0.0000000000000000e+00  1.0003706439294087e+00 5.4268081175660258e-05 0.0000000000000000e+00  1.0016311304443959e+00 -5.3654993908203955e-04 0.0000000000000000e+00  1.0018869102158827e+00 -3.4002770637933449e-04 0.0000000000000000e+00  1.0005032167837853e+00 -4.9419039150058947e-04 0.0000000000000000e+00  9.9940136486051079e-01 -3.3816500067991719e-04 0.0000000000000000e+00  1.0002570480446997e+00 2.6105540216336229e-04 0.0000000000000000e+00  1.0010511140179477e+00 6.0269907642383606e-04 0.0000000000000000e+00  1.0000713469148006e+00 9.4055767931862136e-05 0.0000000000000000e+00  9.9960886519059067e-01 2.1495573544099753e-04 0.0000000000000000e+00  9.9899048556761672e-01 3.7147514124331556e-04 0.0000000000000000e+00  9.9942377840559293e-01 3.8053645002228685e-04 0.0000000000000000e+00  9.9916563158481719e-01 3.9059620703571886e-04 0.0000000000000000e+00  9.9958032196438829e-01 3.0106144852841518e-04 0.0000000000000000e+00  9.9931344530059640e-01 1.1081963563474861e-04 0.0000000000000000e+00  9.9853355966989110e-01 0.0000000000000000e+00 0.0000000000000000e+00  9.9834465008177908e-01 0.0000000000000000e+00 0.0000000000000000e+00  9.9816291664863532e-01 0.0000000000000000e+00 0.0000000000000000e+00  9.9830827940644484e-01 0.0000000000000000e+00 0.0000000000000000e+00  9.9782007024758124e-01 0.0000000000000000e+00 0.0000000000000000e+00  9.9781913005844147e-01 0.0000000000000000e+00 0.0000000000000000e+00  9.9800943529496722e-01 0.0000000000000000e+00 0.0000000000000000e+00  9.9829105512325256e-01 0.0000000000000000e+00 0.0000000000000000e+00  9.9789188654404937e-01 0.0000000000000000e+00 0.0000000000000000e+00  9.9780892386140518e-01 0.0000000000000000e+00 0.0000000000000000e+00  9.9759509439011451e-01 0.0000000000000000e+00 0.0000000000000000e+00  9.9725285621892312e-01 0.0000000000000000e+00 0.0000000000000000e+00  9.9698294893127604e-01 0.0000000000000000e+00 0.0000000000000000e+00  9.9739794992536945e-01 0.0000000000000000e+00 0.0000000000000000e+00  9.9704255135230069e-01 0.0000000000000000e+00 0.0000000000000000e+00  9.9764713096766366e-01 0.0000000000000000e+00 0.0000000000000000e+00  9.9696741272616884e-01 0.0000000000000000e+00 0.0000000000000000e+00  9.9683686481751865e-01 0.0000000000000000e+00 0.0000000000000000e+00  9.9647135438906953e-01 0.0000000000000000e+00 0.0000000000000000e+00  9.9672253664316524e-01 0.0000000000000000e+00 0.0000000000000000e+00  9.9676552563581911e-01 0.0000000000000000e+00 0.0000000000000000e+00  9.9646847492152812e-01 0.0000000000000000e+00 0.0000000000000000e+00  9.9675550010903480e-01 0.0000000000000000e+00 0.0000000000000000e+00  9.9625562091496134e-01 0.0000000000000000e+00 0.0000000000000000e+00  9.9639155600521190e-01 0.0000000000000000e+00 0.0000000000000000e+00  9.9547398302791001e-01 0.0000000000000000e+00 0.0000000000000000e+00  9.9610819695344632e-01 0.0000000000000000e+00 0.0000000000000000e+00  9.9754247413516284e-01 0.0000000000000000e+00 0.0000000000000000e+00  9.9784262989167449e-01 0.0000000000000000e+00 0.0000000000000000e+00  9.9633349938493976e-01 0.0000000000000000e+00 0.0000000000000000e+00  9.9699781627525985e-01 0.0000000000000000e+00 0.0000000000000000e+00  9.9755999309737875e-01 0.0000000000000000e+00 0.0000000000000000e+00  9.9729333276625920e-01 0.0000000000000000e+00 0.0000000000000000e+00  9.9763626789900628e-01 0.0000000000000000e+00 0.0000000000000000e+00  9.9801506607634538e-01 0.0000000000000000e+00 0.0000000000000000e+00  9.9773322200030989e-01 0.0000000000000000e+00 0.0000000000000000e+00  9.9827339304214602e-01 0.0000000000000000e+00 0.0000000000000000e+00  9.9880357156844013e-01 0.0000000000000000e+00 0.0000000000000000e+00  9.9856704533334795e-01 0.0000000000000000e+00 0.0000000000000000e+00  9.9966382607021298e-01 0.0000000000000000e+00 0.0000000000000000e+00  1.0008073577568397e+00 0.0000000000000000e+00 0.0000000000000000e+00  1.0011978414539748e+00 0.0000000000000000e+00 0.0000000000000000e+00  1.0026685404201061e+00 0.0000000000000000e+00 0.0000000000000000e+00  1.0041696825488431e+00 0.0000000000000000e+00 0.0000000000000000e+00  1.0048044947188717e+00 0.0000000000000000e+00 0.0000000000000000e+00  1.0071441498437084e+00 0.0000000000000000e+00 0.0000000000000000e+00  1.0096096808623785e+00 0.0000000000000000e+00 0.0000000000000000e+00  1.0116074308435328e+00 0.0000000000000000e+00 0.0000000000000000e+00  1.0143709736675932e+00 0.0000000000000000e+00 0.0000000000000000e+00  1.0175375448292370e+00 0.0000000000000000e+00 0.0000000000000000e+00  1.0208540102845196e+00 0.0000000000000000e+00 0.0000000000000000e+00  1.0250675800579414e+00 0.0000000000000000e+00 0.0000000000000000e+00  1.0298564232671836e+00 0.0000000000000000e+00 0.0000000000000000e+00  1.0350858049332470e+00 0.0000000000000000e+00 0.0000000000000000e+00  1.0416999920744148e+00 0.0000000000000000e+00 0.0000000000000000e+00  1.0478401953745138e+00 0.0000000000000000e+00 0.0000000000000000e+00  1.0551422766254830e+00 0.0000000000000000e+00 0.0000000000000000e+00  1.0637516466964889e+00 0.0000000000000000e+00 0.0000000000000000e+00  1.0728313389940625e+00 0.0000000000000000e+00 0.0000000000000000e+00  1.0816563685540497e+00 0.0000000000000000e+00 0.0000000000000000e+00  1.0903155296877756e+00 0.0000000000000000e+00 0.0000000000000000e+00  1.0990503416564184e+00 0.0000000000000000e+00 0.0000000000000000e+00  1.1080063885281364e+00 0.0000000000000000e+00 0.0000000000000000e+00  1.1153529963116056e+00 0.0000000000000000e+00 0.0000000000000000e+00  1.1207741212485849e+00 0.0000000000000000e+00 0.0000000000000000e+00  1.1256786075868659e+00 0.0000000000000000e+00 0.0000000000000000e+00  1.1266388744749734e+00 0.0000000000000000e+00 0.0000000000000000e+00  1.1260876461705589e+00 0.0000000000000000e+00 0.0000000000000000e+00  1.1227961428457680e+00 0.0000000000000000e+00 0.0000000000000000e+00  1.1166127161468422e+00 0.0000000000000000e+00 0.0000000000000000e+00  1.1086074766831626e+00 0.0000000000000000e+00 0.0000000000000000e+00  1.0993901013705223e+00 0.0000000000000000e+00 0.0000000000000000e+00  1.0892863636339054e+00 0.0000000000000000e+00 0.0000000000000000e+00  1.0779081729091065e+00 0.0000000000000000e+00 0.0000000000000000e+00  1.0677261724480245e+00 0.0000000000000000e+00 0.0000000000000000e+00  1.0572271498707206e+00 0.0000000000000000e+00 0.0000000000000000e+00  1.0382917960337923e+00 0.0000000000000000e+00 0.0000000000000000e+00  1.0304344111467378e+00 0.0000000000000000e+00 0.0000000000000000e+00  1.0243036324831496e+00 0.0000000000000000e+00 0.0000000000000000e+00  1.0187927886455999e+00 0.0000000000000000e+00 0.0000000000000000e+00  1.0144113828643331e+00 0.0000000000000000e+00 0.0000000000000000e+00  1.0109519179450457e+00 0.0000000000000000e+00 0.0000000000000000e+00  1.0082953806327504e+00 0.0000000000000000e+00 0.0000000000000000e+00  1.0058241073288177e+00 0.0000000000000000e+00 0.0000000000000000e+00  1.0040985850360005e+00 0.0000000000000000e+00 0.0000000000000000e+00  1.0029090262300502e+00 0.0000000000000000e+00 0.0000000000000000e+00  1.0015918434578495e+00 0.0000000000000000e+00 0.0000000000000000e+00  1.0013636326123050e+00 0.0000000000000000e+00 0.0000000000000000e+00  1.0002680483642765e+00 0.0000000000000000e+00 0.0000000000000000e+00  1.0002237145955837e+00 0.0000000000000000e+00 0.0000000000000000e+00  9.9980573676984152e-01 0.0000000000000000e+00 0.0000000000000000e+00  1.0005026483247694e+00 0.0000000000000000e+00 0.0000000000000000e+00  1.0002530634088320e+00 0.0000000000000000e+00 0.0000000000000000e+00  9.9979698559084973e-01 0.0000000000000000e+00 0.0000000000000000e+00  1.0000001316409168e+00 0.0000000000000000e+00 0.0000000000000000e+00  1.0000001316409168e+00 0.0000000000000000e+00 0.0000000000000000e+00  1.0000001316409168e+00 0.0000000000000000e+00 0.0000000000000000e+00  1.0000001316409168e+00 0.0000000000000000e+00 0.0000000000000000e+00  1.0000001316409168e+00 0.0000000000000000e+00 0.0000000000000000e+00  1.0000001316409168e+00 0.0000000000000000e+00 0.0000000000000000e+00  1.0000001316409168e+00 0.0000000000000000e+00 0.0000000000000000e+00  1.0000001316409168e+00 0.0000000000000000e+00 0.0000000000000000e+00  1.0000001316409168e+00 0.0000000000000000e+00 0.0000000000000000e+00  1.0000001316409168e+00 0.0000000000000000e+00 0.0000000000000000e+00  1.0000001316409168e+00 0.0000000000000000e+00 0.0000000000000000e+00  1.0000001316409168e+00 0.0000000000000000e+00 0.0000000000000000e+00  1.0000001316409168e+00 0.0000000000000000e+00 0.0000000000000000e+00  1.0000001316409168e+00 0.0000000000000000e+00 0.0000000000000000e+00  1.0000001316409168e+00 0.0000000000000000e+00 0.0000000000000000e+00  1.0000001316409168e+00 0.0000000000000000e+00 0.0000000000000000e+00  1.0000001316409168e+00 0.0000000000000000e+00 0.0000000000000000e+00  1.0000001316409168e+00 0.0000000000000000e+00 0.0000000000000000e+00  1.0000001316409168e+00 0.0000000000000000e+00 0.0000000000000000e+00  1.0000001316409168e+00 0.0000000000000000e+00 0.0000000000000000e+00  1.0473774946593704e+00 -1.1392358433552718e-02 0.0000000000000000e+00  1.0436618787018437e+00 -2.2856530237057630e-02 0.0000000000000000e+00  1.0401964586912378e+00 -3.4775852822946221e-02 0.0000000000000000e+00  1.0328288006217536e+00 -4.7016572076237328e-02 0.0000000000000000e+00  1.0250472115038103e+00 -6.3422097405831421e-02 0.0000000000000000e+00  1.0297164836943355e+00 -6.7484788789064262e-02 0.0000000000000000e+00  1.0339653628609349e+00 -7.1674594445935477e-02 0.0000000000000000e+00  1.0392960447788293e+00 -7.5609458472505844e-02 0.0000000000000000e+00  1.0449223556856608e+00 -7.9448434626970571e-02 0.0000000000000000e+00  1.0512177529107007e+00 -8.2935801771137435e-02 0.0000000000000000e+00  1.0581410268837990e+00 -8.6122299611779723e-02 0.0000000000000000e+00  1.0655811349607194e+00 -8.8696975968263883e-02 0.0000000000000000e+00  1.0735801204120996e+00 -9.0804937087521909e-02 0.0000000000000000e+00  1.0817911612101903e+00 -9.2081997468180549e-02 0.0000000000000000e+00  1.0904057041219810e+00 -9.2768361480772721e-02 0.0000000000000000e+00  1.0991779497119314e+00 -9.2712240697687784e-02 0.0000000000000000e+00  1.1081119502062120e+00 -9.1651346627009508e-02 0.0000000000000000e+00  1.1167962158663154e+00 -8.9712099058364303e-02 0.0000000000000000e+00  1.1253358638172819e+00 -8.7070869819915103e-02 0.0000000000000000e+00  1.1335769436546266e+00 -8.3637256243127900e-02 0.0000000000000000e+00  1.1412927605820482e+00 -7.9414167243762435e-02 0.0000000000000000e+00  1.1485570144960371e+00 -7.4581919558162943e-02 0.0000000000000000e+00  1.1551849505535903e+00 -6.9201560396108364e-02 0.0000000000000000e+00  1.1612535202256342e+00 -6.3197249695957747e-02 0.0000000000000000e+00  1.1666759101646473e+00 -5.6959842009344959e-02 0.0000000000000000e+00  1.1714712498797701e+00 -5.0275498205375309e-02 0.0000000000000000e+00  1.1754557554101548e+00 -4.3232582697452893e-02 0.0000000000000000e+00  1.1789213784969139e+00 -3.6025658688336196e-02 0.0000000000000000e+00  1.1815504069756215e+00 -2.8676556405401545e-02 0.0000000000000000e+00  1.1835396108312617e+00 -2.1171126245724817e-02 0.0000000000000000e+00  1.1847778295505629e+00 -1.3604125309563897e-02 0.0000000000000000e+00  1.1852638241857005e+00 -6.1037394879646604e-03 0.0000000000000000e+00  1.1850907971903717e+00 1.4610283531487499e-03 0.0000000000000000e+00  1.1841353454477170e+00 8.9758455393359835e-03 0.0000000000000000e+00  1.1825041217114240e+00 1.6286691280495494e-02 0.0000000000000000e+00  1.1801633999013244e+00 2.336761074