<?xml version="1.0"?>
<VTKFile type="UnstructuredGrid"  version="0.1"  >
<UnstructuredGrid>
<Piece  NumberOfPoints="10199" NumberOfCells="20110">
<Points>
<DataArray  type="Float64"  NumberOfComponents="3"  format="ascii">0 -5 0  8 -5 0  30 -5 0  40 -5 0  40 5 0  30 5 0  8 5 0  0 5 0  8 -2.5 0  15 -2.5 0  30 -2.5 0  30 2.5 0  15 2.5 0  8 2.5 0  10 0.5 0  10 -0.5 0  0 0 0  0.4210526315780956 -5 0  0.8421052631563433 -5 0  1.263157894734281 -5 0  1.684210526311999 -5 0  2.105263157889717 -5 0  2.526315789467435 -5 0  2.947368421045153 -5 0  3.368421052622872 -5 0  3.78947368420059 -5 0  4.210526315779479 -5 0  4.631578947359537 -5 0  5.052631578939595 -5 0  5.473684210519653 -5 0  5.89473684209971 -5 0  6.315789473679768 -5 0  6.736842105259826 -5 0  7.157894736839884 -5 0  7.578947368419942 -5 0  8.407407407405314 -5 0  8.814814814810628 -5 0  9.222222222215942 -5 0  9.629629629621256 -5 0  10.03703703702657 -5 0  10.44444444443188 -5 0  10.8518518518372 -5 0  11.25925925924251 -5 0  11.66666666664783 -5 0  12.07407407405314 -5 0  12.48148148145846 -5 0  12.88888888886377 -5 0  13.29629629626908 -5 0  13.7037037036744 -5 0  14.11111111107971 -5 0  14.51851851848502 -5 0  14.92592592589034 -5 0  15.33333333329565 -5 0  15.74074074070096 -5 0  16.14814814810754 -5 0  16.55555555551614 -5 0  16.96296296292474 -5 0  17.37037037033335 -5 0  17.77777777774195 -5 0  18.18518518515056 -5 0  18.59259259255916 -5 0  18.99999999996776 -5 0  19.40740740737636 -5 0  19.81481481478497 -5 0  20.22222222219357 -5 0  20.62962962960217 -5 0  21.03703703701077 -5 0  21.44444444441937 -5 0  21.85185185182797 -5 0  22.25925925923657 -5 0  22.66666666664518 -5 0  23.07407407405378 -5 0  23.48148148146238 -5 0  23.88888888887098 -5 0  24.29629629627958 -5 0  24.70370370368818 -5 0  25.11111111109678 -5 0  25.51851851850539 -5 0  25.92592592591399 -5 0  26.33333333332259 -5 0  26.74074074073119 -5 0  27.14814814813979 -5 0  27.55555555554839 -5 0  27.96296296295699 -5 0  28.3703703703656 -5 0  28.7777777777742 -5 0  29.1851851851828 -5 0  29.5925925925914 -5 0  30.41666666667852 -5 0  30.83333333335704 -5 0  31.25000000003556 -5 0  31.66666666671408 -5 0  32.08333333338936 -5 0  32.50000000005308 -5 0  32.9166666667168 -5 0  33.33333333338052 -5 0  33.75000000004424 -5 0  34.16666666670795 -5 0  34.58333333337167 -5 0  35.00000000003539 -5 0  35.41666666669911 -5 0  35.83333333336282 -5 0  36.25000000002654 -5 0  36.66666666669026 -5 0  37.08333333335398 -5 0  37.50000000001769 -5 0  37.91666666668141 -5 0  38.33333333334513 -5 0  38.75000000000885 -5 0  39.16666666667257 -5 0  39.58333333333628 -5 0  40 -4.583333333332821 0  40 -4.166666666665642 0  40 -3.74999999999855 0  40 -3.333333333333135 0  40 -2.916666666667806 0  40 -2.500000000002478 0  40 -2.083333333337148 0  40 -1.666666666671818 0  40 -1.250000000006488 0  40 -0.8333333333405228 0  40 -0.4166666666733416 0  40 -6.163070054299169e-12 0  40 0.4166666666610173 0  40 0.8333333333281976 0  40 1.249999999995378 0  40 1.666666666662558 0  40 2.083333333329739 0  40 2.499999999996919 0  40 2.916666666664099 0  40 3.33333333333128 0  40 3.74999999999846 0  40 4.166666666665641 0  40 4.583333333332821 0  39.58333333333628 5 0  39.16666666667256 5 0  38.75000000000885 5 0  38.33333333334513 5 0  37.91666666668141 5 0  37.50000000001769 5 0  37.08333333335398 5 0  36.66666666669025 5 0  36.25000000002654 5 0  35.83333333336282 5 0  35.41666666669911 5 0  35.00000000003539 5 0  34.58333333337167 5 0  34.16666666670795 5 0  33.75000000004424 5 0  33.33333333338052 5 0  32.9166666667168 5 0  32.50000000005308 5 0  32.08333333338936 5 0  31.66666666671408 5 0  31.25000000003556 5 0  30.83333333335704 5 0  30.41666666667852 5 0  29.59259259259259 5 0  29.18518518518519 5 0  28.77777777777778 5 0  28.37037037037037 5 0  27.96296296296296 5 0  27.55555555555556 5 0  27.14814814814815 5 0  26.74074074074074 5 0  26.33333333333333 5 0  25.92592592592593 5 0  25.51851851851852 5 0  25.11111111111111 5 0  24.7037037037037 5 0  24.2962962962963 5 0  23.88888888888889 5 0  23.48148148148148 5 0  23.07407407407408 5 0  22.66666666666667 5 0  22.25925925925926 5 0  21.85185185185185 5 0  21.44444444444445 5 0  21.03703703703704 5 0  20.62962962962963 5 0  20.22222222222222 5 0  19.81481481481482 5 0  19.40740740740741 5 0  19 5 0  18.5925925925926 5 0  18.18518518518519 5 0  17.77777777777778 5 0  17.37037037037037 5 0  16.96296296296296 5 0  16.55555555555556 5 0  16.14814814814815 5 0  15.74074074074074 5 0  15.33333333333333 5 0  14.92592592592593 5 0  14.51851851851852 5 0  14.11111111111111 5 0  13.70370370370371 5 0  13.2962962962963 5 0  12.88888888888889 5 0  12.48148148148148 5 0  12.07407407407408 5 0  11.66666666666667 5 0  11.25925925925926 5 0  10.85185185185185 5 0  10.44444444444445 5 0  10.03703703703704 5 0  9.629629629629633 5 0  9.222222222222221 5 0  8.814814814814817 5 0  8.407407407407408 5 0  7.5789473684193 5 0  7.157894736838599 5 0  6.73684210526082 5 0  6.315789473684795 5 0  5.894736842108769 5 0  5.473684210532742 5 0  5.052631578956715 5 0  4.631578947380689 5 0  4.210526315804662 5 0  3.789473684226299 5 0  3.368421052645599 5 0  2.947368421064898 5 0  2.526315789484198 5 0  2.105263157903499 5 0  1.6842105263228 5 0  1.2631578947421 5 0  0.8421052631613994 5 0  0.4210526315806993 5 0  0 4.545454545454545 0  0 4.09090909090909 0  0 3.636363636363634 0  0 3.18181818181818 0  0 2.727272727272726 0  0 2.272727272727271 0  0 1.818181818181817 0  0 1.363636363636363 0  0 0.9090909090909092 0  0 0.454545454545455 0  0 -0.4545454545450807 0  0 -0.9090909090895867 0  0 -1.363636363633713 0  0 -1.818181818177841 0  0 -2.272727272723127 0  0 -2.727272727269273 0  0 -3.181818181815419 0  0 -3.636363636361564 0  0 -4.090909090907709 0  0 -4.545454545453855 0  8 -4.499999999999999 0  8 -3.999999999999999 0  8 -3.499999999999999 0  8 -3 0  8.137254901963859 -2.5 0  8.274509803926303 -2.5 0  8.411764705886863 -2.5 0  8.549019607849138 -2.5 0  8.686274509809513 -2.5 0  8.82352941176989 -2.5 0  8.960784313730265 -2.5 0  9.098039215690642 -2.5 0  9.235294117651017 -2.5 0  9.372549019611395 -2.5 0  9.50980392157177 -2.5 0  9.647058823532147 -2.5 0  9.784313725492522 -2.5 0  9.921568627452897 -2.5 0  10.05882352941327 -2.5 0  10.19607843137365 -2.5 0  10.33333333333402 -2.5 0  10.4705882352944 -2.5 0  10.60784313725478 -2.5 0  10.74509803921515 -2.5 0  10.88235294117553 -2.5 0  11.0196078431359 -2.5 0  11.15686274509628 -2.5 0  11.29411764705665 -2.5 0  11.43137254901703 -2.5 0  11.56862745097915 -2.5 0  11.70588235294301 -2.5 0  11.84313725490686 -2.5 0  11.98039215687072 -2.5 0  12.11764705883209 -2.5 0  12.25490196079247 -2.5 0  12.39215686275285 -2.5 0  12.52941176471322 -2.5 0  12.6666666666736 -2.5 0  12.80392156863397 -2.5 0  12.94117647059435 -2.5 0  13.07843137255473 -2.5 0  13.2156862745151 -2.5 0  13.35294117647548 -2.5 0  13.49019607843586 -2.5 0  13.62745098039623 -2.5 0  13.76470588235661 -2.5 0  13.90196078431699 -2.5 0  14.03921568627736 -2.5 0  14.17647058823774 -2.5 0  14.31372549019812 -2.5 0  14.45098039215849 -2.5 0  14.58823529411887 -2.5 0  14.72549019607925 -2.5 0  14.86274509803962 -2.5 0  15.20270270270254 -2.5 0  15.40540540540509 -2.5 0  15.60810810810763 -2.5 0  15.81081081081017 -2.5 0  16.01351351351227 -2.5 0  16.21621621621265 -2.5 0  16.41891891891279 -2.5 0  16.62162162161294 -2.5 0  16.82432432431308 -2.5 0  17.02702702701322 -2.5 0  17.22972972971337 -2.5 0  17.43243243241351 -2.5 0  17.63513513511365 -2.5 0  17.83783783781379 -2.5 0  18.04054054051394 -2.5 0  18.24324324321408 -2.5 0  18.44594594591422 -2.5 0  18.64864864861436 -2.5 0  18.85135135131451 -2.5 0  19.05405405401465 -2.5 0  19.25675675671479 -2.5 0  19.45945945941494 -2.5 0  19.66216216211508 -2.5 0  19.86486486481522 -2.5 0  20.06756756751536 -2.5 0  20.27027027021551 -2.5 0  20.47297297291565 -2.5 0  20.6756756756158 -2.5 0  20.87837837831594 -2.5 0  21.08108108101608 -2.5 0  21.28378378371622 -2.5 0  21.48648648641637 -2.5 0  21.68918918911651 -2.5 0  21.89189189181666 -2.5 0  22.0945945945168 -2.5 0  22.29729729721694 -2.5 0  22.49999999991778 -2.5 0  22.70270270262203 -2.5 0  22.90540540532697 -2.5 0  23.10810810803191 -2.5 0  23.31081081073686 -2.5 0  23.5135135134418 -2.5 0  23.71621621614674 -2.5 0  23.91891891885169 -2.5 0  24.12162162155663 -2.5 0  24.32432432426158 -2.5 0  24.52702702696652 -2.5 0  24.72972972967146 -2.5 0  24.93243243237641 -2.5 0  25.13513513508135 -2.5 0  25.3378378377863 -2.5 0  25.54054054049124 -2.5 0  25.74324324319618 -2.5 0  25.94594594590112 -2.5 0  26.14864864860607 -2.5 0  26.35135135131101 -2.5 0  26.55405405401596 -2.5 0  26.7567567567209 -2.5 0  26.95945945942584 -2.5 0  27.16216216213079 -2.5 0  27.36486486483573 -2.5 0  27.56756756754068 -2.5 0  27.77027027024562 -2.5 0  27.97297297295056 -2.5 0  28.1756756756555 -2.5 0  28.37837837836045 -2.5 0  28.5810810810654 -2.5 0  28.78378378377034 -2.5 0  28.98648648647528 -2.5 0  29.18918918918023 -2.5 0  29.39189189188517 -2.5 0  29.59459459459011 -2.5 0  29.79729729729506 -2.5 0  30 -3.000000000000001 0  30 -3.500000000000001 0  30 -4.000000000000001 0  30 -4.5 0  8 4.499999999999999 0  8 3.999999999999999 0  8 3.499999999999999 0  8 3 0  8.137254901963859 2.5 0  8.274509803926303 2.5 0  8.411764705886863 2.5 0  8.549019607849138 2.5 0  8.686274509809513 2.5 0  8.82352941176989 2.5 0  8.960784313730265 2.5 0  9.098039215690642 2.5 0  9.235294117651017 2.5 0  9.372549019611395 2.5 0  9.50980392157177 2.5 0  9.647058823532147 2.5 0  9.784313725492522 2.5 0  9.921568627452897 2.5 0  10.05882352941327 2.5 0  10.19607843137365 2.5 0  10.33333333333402 2.5 0  10.4705882352944 2.5 0  10.60784313725478 2.5 0  10.74509803921515 2.5 0  10.88235294117553 2.5 0  11.0196078431359 2.5 0  11.15686274509628 2.5 0  11.29411764705665 2.5 0  11.43137254901703 2.5 0  11.56862745097915 2.5 0  11.70588235294301 2.5 0  11.84313725490686 2.5 0  11.98039215687072 2.5 0  12.11764705883209 2.5 0  12.25490196079247 2.5 0  1
[...]
<PointData  Vectors="f_17"> 
<DataArray  type="Float64"  Name="f_17"  NumberOfComponents="3" format="ascii">1.0000001297430925e+00 0.0000000000000000e+00 0.0000000000000000e+00  1.0402371310004535e+00 0.0000000000000000e+00 0.0000000000000000e+00  1.0510605495112169e+00 0.0000000000000000e+00 0.0000000000000000e+00  1.0766850078439685e+00 0.0000000000000000e+00 0.0000000000000000e+00  1.0957949115954364e+00 0.0000000000000000e+00 0.0000000000000000e+00  1.0642859166800445e+00 0.0000000000000000e+00 0.0000000000000000e+00  1.0406870076282790e+00 0.0000000000000000e+00 0.0000000000000000e+00  1.0000001297430925e+00 0.0000000000000000e+00 0.0000000000000000e+00  1.0184019947209011e+00 -5.1212442829935617e-02 0.0000000000000000e+00  9.9515534490412572e-01 -2.0546919262520179e-02 0.0000000000000000e+00  9.9144041076232237e-01 2.8921617180095772e-02 0.0000000000000000e+00  1.1552651753850884e+00 3.1340093869529871e-02 0.0000000000000000e+00  1.1107380442429913e+00 -7.3179838728397353e-02 0.0000000000000000e+00  1.0244060512271336e+00 5.0463565039511077e-02 0.0000000000000000e+00  0.0000000000000000e+00 0.0000000000000000e+00 0.0000000000000000e+00  0.0000000000000000e+00 0.0000000000000000e+00 0.0000000000000000e+00  1.0000001297430925e+00 0.0000000000000000e+00 0.0000000000000000e+00  9.9927605829357302e-01 0.0000000000000000e+00 0.0000000000000000e+00  9.9864882021459112e-01 0.0000000000000000e+00 0.0000000000000000e+00  1.0006308519929015e+00 0.0000000000000000e+00 0.0000000000000000e+00  1.0003193993809207e+00 0.0000000000000000e+00 0.0000000000000000e+00  1.0011519547530578e+00 0.0000000000000000e+00 0.0000000000000000e+00  1.0013193731449199e+00 0.0000000000000000e+00 0.0000000000000000e+00  1.0014903804816380e+00 0.0000000000000000e+00 0.0000000000000000e+00  1.0022224861085052e+00 0.0000000000000000e+00 0.0000000000000000e+00  1.0033516337736410e+00 0.0000000000000000e+00 0.0000000000000000e+00  1.0044337583878071e+00 0.0000000000000000e+00 0.0000000000000000e+00  1.0058315188091755e+00 0.0000000000000000e+00 0.0000000000000000e+00  1.0080310654657347e+00 0.0000000000000000e+00 0.0000000000000000e+00  1.0103006121143105e+00 0.0000000000000000e+00 0.0000000000000000e+00  1.0141138314601248e+00 0.0000000000000000e+00 0.0000000000000000e+00  1.0157239105125806e+00 0.0000000000000000e+00 0.0000000000000000e+00  1.0201444689987356e+00 0.0000000000000000e+00 0.0000000000000000e+00  1.0267938553991016e+00 0.0000000000000000e+00 0.0000000000000000e+00  1.0321868766092948e+00 0.0000000000000000e+00 0.0000000000000000e+00  1.0484739430394960e+00 0.0000000000000000e+00 0.0000000000000000e+00  1.0572992097304172e+00 0.0000000000000000e+00 0.0000000000000000e+00  1.0657134929772136e+00 0.0000000000000000e+00 0.0000000000000000e+00  1.0746954022558031e+00 0.0000000000000000e+00 0.0000000000000000e+00  1.0820840523754247e+00 0.0000000000000000e+00 0.0000000000000000e+00  1.0885144910104927e+00 0.0000000000000000e+00 0.0000000000000000e+00  1.0939702953589674e+00 0.0000000000000000e+00 0.0000000000000000e+00  1.0960453486822894e+00 0.0000000000000000e+00 0.0000000000000000e+00  1.0963508653903091e+00 0.0000000000000000e+00 0.0000000000000000e+00  1.0940417524801833e+00 0.0000000000000000e+00 0.0000000000000000e+00  1.0900480743275720e+00 0.0000000000000000e+00 0.0000000000000000e+00  1.0835408633538794e+00 0.0000000000000000e+00 0.0000000000000000e+00  1.0774451606263002e+00 0.0000000000000000e+00 0.0000000000000000e+00  1.0713194683575831e+00 0.0000000000000000e+00 0.0000000000000000e+00  1.0661511336069016e+00 0.0000000000000000e+00 0.0000000000000000e+00  1.0630381576280648e+00 0.0000000000000000e+00 0.0000000000000000e+00  1.0617573949621399e+00 0.0000000000000000e+00 0.0000000000000000e+00  1.0623738877325628e+00 0.0000000000000000e+00 0.0000000000000000e+00  1.0638587877272252e+00 0.0000000000000000e+00 0.0000000000000000e+00  1.0652687763492326e+00 0.0000000000000000e+00 0.0000000000000000e+00  1.0670879301606486e+00 0.0000000000000000e+00 0.0000000000000000e+00  1.0675961284677413e+00 0.0000000000000000e+00 0.0000000000000000e+00  1.0648533955036792e+00 0.0000000000000000e+00 0.0000000000000000e+00  1.0609440237294847e+00 0.0000000000000000e+00 0.0000000000000000e+00  1.0554525560238210e+00 0.0000000000000000e+00 0.0000000000000000e+00  1.0494176981185790e+00 0.0000000000000000e+00 0.0000000000000000e+00  1.0443617674938375e+00 0.0000000000000000e+00 0.0000000000000000e+00  1.0404161027697303e+00 0.0000000000000000e+00 0.0000000000000000e+00  1.0387527522090940e+00 0.0000000000000000e+00 0.0000000000000000e+00  1.0399698087910374e+00 0.0000000000000000e+00 0.0000000000000000e+00  1.0427469526339048e+00 0.0000000000000000e+00 0.0000000000000000e+00  1.0470212178211362e+00 0.0000000000000000e+00 0.0000000000000000e+00  1.0535501091428459e+00 0.0000000000000000e+00 0.0000000000000000e+00  1.0584563505319835e+00 0.0000000000000000e+00 0.0000000000000000e+00  1.0615804368843118e+00 0.0000000000000000e+00 0.0000000000000000e+00  1.0633574630657447e+00 0.0000000000000000e+00 0.0000000000000000e+00  1.0618934243024849e+00 0.0000000000000000e+00 0.0000000000000000e+00  1.0582573854408401e+00 0.0000000000000000e+00 0.0000000000000000e+00  1.0549560709613468e+00 0.0000000000000000e+00 0.0000000000000000e+00  1.0507089024047600e+00 0.0000000000000000e+00 0.0000000000000000e+00  1.0473409526629827e+00 0.0000000000000000e+00 0.0000000000000000e+00  1.0464780557614199e+00 0.0000000000000000e+00 0.0000000000000000e+00  1.0469520346241916e+00 0.0000000000000000e+00 0.0000000000000000e+00  1.0493491789348415e+00 0.0000000000000000e+00 0.0000000000000000e+00  1.0538550830378581e+00 0.0000000000000000e+00 0.0000000000000000e+00  1.0579816301928824e+00 0.0000000000000000e+00 0.0000000000000000e+00  1.0612775267925361e+00 0.0000000000000000e+00 0.0000000000000000e+00  1.0657532931064835e+00 0.0000000000000000e+00 0.0000000000000000e+00  1.0662192089629121e+00 0.0000000000000000e+00 0.0000000000000000e+00  1.0629995450183098e+00 0.0000000000000000e+00 0.0000000000000000e+00  1.0592621632286130e+00 0.0000000000000000e+00 0.0000000000000000e+00  1.0564639613788764e+00 0.0000000000000000e+00 0.0000000000000000e+00  1.0528753378119526e+00 0.0000000000000000e+00 0.0000000000000000e+00  1.0505783450125912e+00 0.0000000000000000e+00 0.0000000000000000e+00  1.0513091161834858e+00 0.0000000000000000e+00 0.0000000000000000e+00  1.0537622140484935e+00 0.0000000000000000e+00 0.0000000000000000e+00  1.0579631240231469e+00 0.0000000000000000e+00 0.0000000000000000e+00  1.0623632017259657e+00 0.0000000000000000e+00 0.0000000000000000e+00  1.0653503468340375e+00 0.0000000000000000e+00 0.0000000000000000e+00  1.0668231218239224e+00 0.0000000000000000e+00 0.0000000000000000e+00  1.0666782362374043e+00 0.0000000000000000e+00 0.0000000000000000e+00  1.0649073262644342e+00 0.0000000000000000e+00 0.0000000000000000e+00  1.0616264149366967e+00 0.0000000000000000e+00 0.0000000000000000e+00  1.0586645437715618e+00 0.0000000000000000e+00 0.0000000000000000e+00  1.0564614157027590e+00 0.0000000000000000e+00 0.0000000000000000e+00  1.0555654759293320e+00 0.0000000000000000e+00 0.0000000000000000e+00  1.0572046862422446e+00 0.0000000000000000e+00 0.0000000000000000e+00  1.0606384304028946e+00 0.0000000000000000e+00 0.0000000000000000e+00  1.0659084698637771e+00 0.0000000000000000e+00 0.0000000000000000e+00  1.0706170164767885e+00 0.0000000000000000e+00 0.0000000000000000e+00  1.0752645007589394e+00 0.0000000000000000e+00 0.0000000000000000e+00  1.0781517316238958e+00 0.0000000000000000e+00 0.0000000000000000e+00  1.0800290714021528e+00 0.0000000000000000e+00 0.0000000000000000e+00  1.0796252053486721e+00 0.0000000000000000e+00 0.0000000000000000e+00  1.0788439539512280e+00 0.0000000000000000e+00 0.0000000000000000e+00  1.0770019539575193e+00 0.0000000000000000e+00 0.0000000000000000e+00  1.0766326910471864e+00 2.5083816183267928e-04 0.0000000000000000e+00  1.0754728487947982e+00 1.0600707219474309e-03 0.0000000000000000e+00  1.0724335645794729e+00 3.3221434246024748e-03 0.0000000000000000e+00  1.0642165307194216e+00 8.3042030506613133e-03 0.0000000000000000e+00  1.0506484929808482e+00 1.7023744502264813e-02 0.0000000000000000e+00  1.0266666400436257e+00 3.2399905669153392e-02 0.0000000000000000e+00  9.8878593192309094e-01 5.2403254409021154e-02 0.0000000000000000e+00  9.3438122974348847e-01 7.7991394088132437e-02 0.0000000000000000e+00  8.6555223512373936e-01 1.0119572865211442e-01 0.0000000000000000e+00  7.9473773497895961e-01 1.1030753589747659e-01 0.0000000000000000e+00  7.3644854047143948e-01 1.1577414173393759e-01 0.0000000000000000e+00  7.0858828810587016e-01 1.2787547663159496e-01 0.0000000000000000e+00  7.3819389870809227e-01 1.5275539454004108e-01 0.0000000000000000e+00  8.3498406033294270e-01 1.7931257147790325e-01 0.0000000000000000e+00  9.6820781886383367e-01 2.0275926243054074e-01 0.0000000000000000e+00  1.0896514707036558e+00 1.9294097056275647e-01 0.0000000000000000e+00  1.1565450242704181e+00 1.5659656703137065e-01 0.0000000000000000e+00  1.1652084531892566e+00 1.1317033450439287e-01 0.0000000000000000e+00  1.1439027737589018e+00 7.3765757350640324e-02 0.0000000000000000e+00  1.1221196298853922e+00 4.5192120755541444e-02 0.0000000000000000e+00  1.1086640814462769e+00 2.7446177250618452e-02 0.0000000000000000e+00  1.1019024960623720e+00 1.5899454473092094e-02 0.0000000000000000e+00  1.0976223666045970e+00 7.1403511299052095e-03 0.0000000000000000e+00  1.0879806598658286e+00 0.0000000000000000e+00 0.0000000000000000e+00  1.0798244967967088e+00 0.0000000000000000e+00 0.0000000000000000e+00  1.0723281400085170e+00 0.0000000000000000e+00 0.0000000000000000e+00  1.0671622260634821e+00 0.0000000000000000e+00 0.0000000000000000e+00  1.0637537929360548e+00 0.0000000000000000e+00 0.0000000000000000e+00  1.0631874111429622e+00 0.0000000000000000e+00 0.0000000000000000e+00  1.0645237102085854e+00 0.0000000000000000e+00 0.0000000000000000e+00  1.0671413358903830e+00 0.0000000000000000e+00 0.0000000000000000e+00  1.0689489352833268e+00 0.0000000000000000e+00 0.0000000000000000e+00  1.0702381352834069e+00 0.0000000000000000e+00 0.0000000000000000e+00  1.0697482646366701e+00 0.0000000000000000e+00 0.0000000000000000e+00  1.0674706048397766e+00 0.0000000000000000e+00 0.0000000000000000e+00  1.0636905013078675e+00 0.0000000000000000e+00 0.0000000000000000e+00  1.0599371282014198e+00 0.0000000000000000e+00 0.0000000000000000e+00  1.0554590696741755e+00 0.0000000000000000e+00 0.0000000000000000e+00  1.0531896658240678e+00 0.0000000000000000e+00 0.0000000000000000e+00  1.0513299803914389e+00 0.0000000000000000e+00 0.0000000000000000e+00  1.0520709894221703e+00 0.0000000000000000e+00 0.0000000000000000e+00  1.0543356414578577e+00 0.0000000000000000e+00 0.0000000000000000e+00  1.0582904233754376e+00 0.0000000000000000e+00 0.0000000000000000e+00  1.0619029680550176e+00 0.0000000000000000e+00 0.0000000000000000e+00  1.0643008952168425e+00 0.0000000000000000e+00 0.0000000000000000e+00  1.0654127803602924e+00 0.0000000000000000e+00 0.0000000000000000e+00  1.0608534904216229e+00 0.0000000000000000e+00 0.0000000000000000e+00  1.0569359345515299e+00 0.0000000000000000e+00 0.0000000000000000e+00  1.0519559852212985e+00 0.0000000000000000e+00 0.0000000000000000e+00  1.0492120073325062e+00 0.0000000000000000e+00 0.0000000000000000e+00  1.0488317752403007e+00 0.0000000000000000e+00 0.0000000000000000e+00  1.0492185789625001e+00 0.0000000000000000e+00 0.0000000000000000e+00  1.0496168931767151e+00 0.0000000000000000e+00 0.0000000000000000e+00  1.0536305261801091e+00 0.0000000000000000e+00 0.0000000000000000e+00  1.0581262684623978e+00 0.0000000000000000e+00 0.0000000000000000e+00  1.0613621920432972e+00 0.0000000000000000e+00 0.0000000000000000e+00  1.0637354905525487e+00 0.0000000000000000e+00 0.0000000000000000e+00  1.0639674681864932e+00 0.0000000000000000e+00 0.0000000000000000e+00  1.0612305405007134e+00 0.0000000000000000e+00 0.0000000000000000e+00  1.0574141071158933e+00 0.0000000000000000e+00 0.0000000000000000e+00  1.0524115620330989e+00 0.0000000000000000e+00 0.0000000000000000e+00  1.0466085034563712e+00 0.0000000000000000e+00 0.0000000000000000e+00  1.0432476109739224e+00 0.0000000000000000e+00 0.0000000000000000e+00  1.0417231232246331e+00 0.0000000000000000e+00 0.0000000000000000e+00  1.0415440024895180e+00 0.0000000000000000e+00 0.0000000000000000e+00  1.0445111008677512e+00 0.0000000000000000e+00 0.0000000000000000e+00  1.0489047507772711e+00 0.0000000000000000e+00 0.0000000000000000e+00  1.0529649127867562e+00 0.0000000000000000e+00 0.0000000000000000e+00  1.0579730180937177e+00 0.0000000000000000e+00 0.0000000000000000e+00  1.0614869167825245e+00 0.0000000000000000e+00 0.0000000000000000e+00  1.0619556203707841e+00 0.0000000000000000e+00 0.0000000000000000e+00  1.0604050140957149e+00 0.0000000000000000e+00 0.0000000000000000e+00  1.0568293792938563e+00 0.0000000000000000e+00 0.0000000000000000e+00  1.0516639691060310e+00 0.0000000000000000e+00 0.0000000000000000e+00  1.0468751548121502e+00 0.0000000000000000e+00 0.0000000000000000e+00  1.0431889942051198e+00 0.0000000000000000e+00 0.0000000000000000e+00  1.0412253606801716e+00 0.0000000000000000e+00 0.0000000000000000e+00  1.0424682752979588e+00 0.0000000000000000e+00 0.0000000000000000e+00  1.0449851571340611e+00 0.0000000000000000e+00 0.0000000000000000e+00  1.0499887732577584e+00 0.0000000000000000e+00 0.0000000000000000e+00  1.0570626831153693e+00 0.0000000000000000e+00 0.0000000000000000e+00  1.0645566841912077e+00 0.0000000000000000e+00 0.0000000000000000e+00  1.0712126620580180e+00 0.0000000000000000e+00 0.0000000000000000e+00  1.0764972440758227e+00 0.0000000000000000e+00 0.0000000000000000e+00  1.0808778807965869e+00 0.0000000000000000e+00 0.0000000000000000e+00  1.0846736017647474e+00 0.0000000000000000e+00 0.0000000000000000e+00  1.0865236468059705e+00 0.0000000000000000e+00 0.0000000000000000e+00  1.0873548318071360e+00 0.0000000000000000e+00 0.0000000000000000e+00  1.0889922852658003e+00 0.0000000000000000e+00 0.0000000000000000e+00  1.0885181805230817e+00 0.0000000000000000e+00 0.0000000000000000e+00  1.0883868803633225e+00 0.0000000000000000e+00 0.0000000000000000e+00  1.0871670785038900e+00 0.0000000000000000e+00 0.0000000000000000e+00  1.0842890666111287e+00 0.0000000000000000e+00 0.0000000000000000e+00  1.0804243818832304e+00 0.0000000000000000e+00 0.0000000000000000e+00  1.0757035670736563e+00 0.0000000000000000e+00 0.0000000000000000e+00  1.0699086762014189e+00 0.0000000000000000e+00 0.0000000000000000e+00  1.0626138198273993e+00 0.0000000000000000e+00 0.0000000000000000e+00  1.0557925287236747e+00 0.0000000000000000e+00 0.0000000000000000e+00  1.0481468819424800e+00 0.0000000000000000e+00 0.0000000000000000e+00  1.0333508835493166e+00 0.0000000000000000e+00 0.0000000000000000e+00  1.0268688300234490e+00 0.0000000000000000e+00 0.0000000000000000e+00  1.0216962890390038e+00 0.0000000000000000e+00 0.0000000000000000e+00  1.0170150538305862e+00 0.0000000000000000e+00 0.0000000000000000e+00  1.0131993374255941e+00 0.0000000000000000e+00 0.0000000000000000e+00  1.0101877478246286e+00 0.0000000000000000e+00 0.0000000000000000e+00  1.0079095545077250e+00 0.0000000000000000e+00 0.0000000000000000e+00  1.0057255493247714e+00 0.0000000000000000e+00 0.0000000000000000e+00  1.0042096680750998e+00 0.0000000000000000e+00 0.0000000000000000e+00  1.0031790804466214e+00 0.0000000000000000e+00 0.0000000000000000e+00  1.0019644304131532e+00 0.0000000000000000e+00 0.0000000000000000e+00  1.0017590757044794e+00 0.0000000000000000e+00 0.0000000000000000e+00  1.0006320212790583e+00 0.0000000000000000e+00 0.0000000000000000e+00  1.0005361265862047e+00 0.0000000000000000e+00 0.0000000000000000e+00  1.0000325081655435e+00 0.0000000000000000e+00 0.0000000000000000e+00  1.0006275935490396e+00 0.0000000000000000e+00 0.0000000000000000e+00  1.0003084238702198e+00 0.0000000000000000e+00 0.0000000000000000e+00  9.9980663990830376e-01 0.0000000000000000e+00 0.0000000000000000e+00  1.0000001297430925e+00 0.0000000000000000e+00 0.0000000000000000e+00  1.0000001297430925e+00 0.0000000000000000e+00 0.0000000000000000e+00  1.0000001297430925e+00 0.0000000000000000e+00 0.0000000000000000e+00  1.0000001297430925e+00 0.0000000000000000e+00 0.0000000000000000e+00  1.0000001297430925e+00 0.0000000000000000e+00 0.0000000000000000e+00  1.0000001297430925e+00 0.0000000000000000e+00 0.0000000000000000e+00  1.0000001297430925e+00 0.0000000000000000e+00 0.0000000000000000e+00  1.0000001297430925e+00 0.0000000000000000e+00 0.0000000000000000e+00  1.0000001297430925e+00 0.0000000000000000e+00 0.0000000000000000e+00  1.0000001297430925e+00 0.0000000000000000e+00 0.0000000000000000e+00  1.0000001297430925e+00 0.0000000000000000e+00 0.0000000000000000e+00  1.0000001297430925e+00 0.0000000000000000e+00 0.0000000000000000e+00  1.0000001297430925e+00 0.0000000000000000e+00 0.0000000000000000e+00  1.0000001297430925e+00 0.0000000000000000e+00 0.0000000000000000e+00  1.0000001297430925e+00 0.0000000000000000e+00 0.0000000000000000e+00  1.0000001297430925e+00 0.0000000000000000e+00 0.0000000000000000e+00  1.0000001297430925e+00 0.0000000000000000e+00 0.0000000000000000e+00  1.0000001297430925e+00 0.0000000000000000e+00 0.0000000000000000e+00  1.0000001297430925e+00 0.0000000000000000e+00 0.0000000000000000e+00  1.0000001297430925e+00 0.0000000000000000e+00 0.0000000000000000e+00  1.0395735758585027e+00 -9.5772629147983460e-03 0.0000000000000000e+00  1.0363705989883534e+00 -1.9304889190963105e-02 0.0000000000000000e+00  1.0337966539271339e+00 -2.9638959936497813e-02 0.0000000000000000e+00  1.0275585638509894e+00 -4.0417676586423694e-02 0.0000000000000000e+00  1.0209692276777858e+00 -5.5144809117463341e-02 0.0000000000000000e+00  1.0252333368523447e+00 -5.8767847511314503e-02 0.0000000000000000e+00  1.0291617649563505e+00 -6.2484087415150359e-02 0.0000000000000000e+00  1.0340870397657249e+00 -6.5944974621063246e-02 0.0000000000000000e+00  1.0393075620936594e+00 -6.9282017266857149e-02 0.0000000000000000e+00  1.0451602561627227e+00 -7.2248589467316146e-02 0.0000000000000000e+00  1.0516068471045843e+00 -7.4883818644391253e-02 0.0000000000000000e+00  1.0585261968450144e+00 -7.6899465882917711e-02 0.0000000000000000e+00  1.0659696386323270e+00 -7.8401176445333468e-02 0.0000000000000000e+00  1.0735860117932841e+00 -7.9059444486284505e-02 0.0000000000000000e+00  1.0815541800193025e+00 -7.9090134428817793e-02 0.0000000000000000e+00  1.0896135351526024e+00 -7.8367520965998180e-02 0.0000000000000000e+00  1.0977944334839500e+00 -7.6614050867335790e-02 0.0000000000000000e+00  1.1056804882498283e+00 -7.3956825333918647e-02 0.0000000000000000e+00  1.1133506427667592e+00 -7.0593194009807528e-02 0.0000000000000000e+00  1.1206648270615733e+00 -6.6421526345696827e-02 0.0000000000000000e+00  1.1274350073606281e+00 -6.1489340836673428e-02 0.0000000000000000e+00  1.1336729646893076e+00 -5.5909317240368538e-02 0.0000000000000000e+00  1.1393010755928763e+00 -4.9792516473621901e-02 0.0000000000000000e+00  1.1443081635271866e+00 -4.3022516669207304e-02 0.0000000000000000e+00  1.1486531785469496e+00 -3.5966895909036574e-02 0.0000000000000000e+00  1.1523166318195663e+00 -2.8340407846175111e-02 0.0000000000000000e+00  1.1551533575233424e+00 -2.0298719843707753e-02 0.0000000000000000e+00  1.1573361454544318e+00 -1.1968807277839022e-02 0.0000000000000000e+00  1.1585744239664535e+00 -3.3585527433557414e-03 0.0000000000000000e+00  1.1589311044292825e+00 5.5372557860330412e-03 0.0000000000000000e+00  1.1582710160439513e+00 1.4617084877985858e-02 0.0000000000000000e+00  1.1565111656159290e+00 2.3700464691503508e-02 0.0000000000000000e+00  1.1536534441855926e+00 3.2827425436056192e-02 0.0000000000000000e+00  1.1495677017633652e+00 4.1808048439886253e-02 0.0000000000000000e+00  1.1442956221543428e+00 5.0372110538455091e-02 0.0000000000000000e+00  1.1378354602453535e+00 5.8381250625325946e-02 0.00