<?xml version="1.0"?>
<VTKFile type="UnstructuredGrid"  version="0.1"  >
<UnstructuredGrid>
<Piece  NumberOfPoints="10199" NumberOfCells="20110">
<Points>
<DataArray  type="Float64"  NumberOfComponents="3"  format="ascii">0 -5 0  8 -5 0  30 -5 0  40 -5 0  40 5 0  30 5 0  8 5 0  0 5 0  8 -2.5 0  15 -2.5 0  30 -2.5 0  30 2.5 0  15 2.5 0  8 2.5 0  10 0.5 0  10 -0.5 0  0 0 0  0.4210526315780956 -5 0  0.8421052631563433 -5 0  1.263157894734281 -5 0  1.684210526311999 -5 0  2.105263157889717 -5 0  2.526315789467435 -5 0  2.947368421045153 -5 0  3.368421052622872 -5 0  3.78947368420059 -5 0  4.210526315779479 -5 0  4.631578947359537 -5 0  5.052631578939595 -5 0  5.473684210519653 -5 0  5.89473684209971 -5 0  6.315789473679768 -5 0  6.736842105259826 -5 0  7.157894736839884 -5 0  7.578947368419942 -5 0  8.407407407405314 -5 0  8.814814814810628 -5 0  9.222222222215942 -5 0  9.629629629621256 -5 0  10.03703703702657 -5 0  10.44444444443188 -5 0  10.8518518518372 -5 0  11.25925925924251 -5 0  11.66666666664783 -5 0  12.07407407405314 -5 0  12.48148148145846 -5 0  12.88888888886377 -5 0  13.29629629626908 -5 0  13.7037037036744 -5 0  14.11111111107971 -5 0  14.51851851848502 -5 0  14.92592592589034 -5 0  15.33333333329565 -5 0  15.74074074070096 -5 0  16.14814814810754 -5 0  16.55555555551614 -5 0  16.96296296292474 -5 0  17.37037037033335 -5 0  17.77777777774195 -5 0  18.18518518515056 -5 0  18.59259259255916 -5 0  18.99999999996776 -5 0  19.40740740737636 -5 0  19.81481481478497 -5 0  20.22222222219357 -5 0  20.62962962960217 -5 0  21.03703703701077 -5 0  21.44444444441937 -5 0  21.85185185182797 -5 0  22.25925925923657 -5 0  22.66666666664518 -5 0  23.07407407405378 -5 0  23.48148148146238 -5 0  23.88888888887098 -5 0  24.29629629627958 -5 0  24.70370370368818 -5 0  25.11111111109678 -5 0  25.51851851850539 -5 0  25.92592592591399 -5 0  26.33333333332259 -5 0  26.74074074073119 -5 0  27.14814814813979 -5 0  27.55555555554839 -5 0  27.96296296295699 -5 0  28.3703703703656 -5 0  28.7777777777742 -5 0  29.1851851851828 -5 0  29.5925925925914 -5 0  30.41666666667852 -5 0  30.83333333335704 -5 0  31.25000000003556 -5 0  31.66666666671408 -5 0  32.08333333338936 -5 0  32.50000000005308 -5 0  32.9166666667168 -5 0  33.33333333338052 -5 0  33.75000000004424 -5 0  34.16666666670795 -5 0  34.58333333337167 -5 0  35.00000000003539 -5 0  35.41666666669911 -5 0  35.83333333336282 -5 0  36.25000000002654 -5 0  36.66666666669026 -5 0  37.08333333335398 -5 0  37.50000000001769 -5 0  37.91666666668141 -5 0  38.33333333334513 -5 0  38.75000000000885 -5 0  39.16666666667257 -5 0  39.58333333333628 -5 0  40 -4.583333333332821 0  40 -4.166666666665642 0  40 -3.74999999999855 0  40 -3.333333333333135 0  40 -2.916666666667806 0  40 -2.500000000002478 0  40 -2.083333333337148 0  40 -1.666666666671818 0  40 -1.250000000006488 0  40 -0.8333333333405228 0  40 -0.4166666666733416 0  40 -6.163070054299169e-12 0  40 0.4166666666610173 0  40 0.8333333333281976 0  40 1.249999999995378 0  40 1.666666666662558 0  40 2.083333333329739 0  40 2.499999999996919 0  40 2.916666666664099 0  40 3.33333333333128 0  40 3.74999999999846 0  40 4.166666666665641 0  40 4.583333333332821 0  39.58333333333628 5 0  39.16666666667256 5 0  38.75000000000885 5 0  38.33333333334513 5 0  37.91666666668141 5 0  37.50000000001769 5 0  37.08333333335398 5 0  36.66666666669025 5 0  36.25000000002654 5 0  35.83333333336282 5 0  35.41666666669911 5 0  35.00000000003539 5 0  34.58333333337167 5 0  34.16666666670795 5 0  33.75000000004424 5 0  33.33333333338052 5 0  32.9166666667168 5 0  32.50000000005308 5 0  32.08333333338936 5 0  31.66666666671408 5 0  31.25000000003556 5 0  30.83333333335704 5 0  30.41666666667852 5 0  29.59259259259259 5 0  29.18518518518519 5 0  28.77777777777778 5 0  28.37037037037037 5 0  27.96296296296296 5 0  27.55555555555556 5 0  27.14814814814815 5 0  26.74074074074074 5 0  26.33333333333333 5 0  25.92592592592593 5 0  25.51851851851852 5 0  25.11111111111111 5 0  24.7037037037037 5 0  24.2962962962963 5 0  23.88888888888889 5 0  23.48148148148148 5 0  23.07407407407408 5 0  22.66666666666667 5 0  22.25925925925926 5 0  21.85185185185185 5 0  21.44444444444445 5 0  21.03703703703704 5 0  20.62962962962963 5 0  20.22222222222222 5 0  19.81481481481482 5 0  19.40740740740741 5 0  19 5 0  18.5925925925926 5 0  18.18518518518519 5 0  17.77777777777778 5 0  17.37037037037037 5 0  16.96296296296296 5 0  16.55555555555556 5 0  16.14814814814815 5 0  15.74074074074074 5 0  15.33333333333333 5 0  14.92592592592593 5 0  14.51851851851852 5 0  14.11111111111111 5 0  13.70370370370371 5 0  13.2962962962963 5 0  12.88888888888889 5 0  12.48148148148148 5 0  12.07407407407408 5 0  11.66666666666667 5 0  11.25925925925926 5 0  10.85185185185185 5 0  10.44444444444445 5 0  10.03703703703704 5 0  9.629629629629633 5 0  9.222222222222221 5 0  8.814814814814817 5 0  8.407407407407408 5 0  7.5789473684193 5 0  7.157894736838599 5 0  6.73684210526082 5 0  6.315789473684795 5 0  5.894736842108769 5 0  5.473684210532742 5 0  5.052631578956715 5 0  4.631578947380689 5 0  4.210526315804662 5 0  3.789473684226299 5 0  3.368421052645599 5 0  2.947368421064898 5 0  2.526315789484198 5 0  2.105263157903499 5 0  1.6842105263228 5 0  1.2631578947421 5 0  0.8421052631613994 5 0  0.4210526315806993 5 0  0 4.545454545454545 0  0 4.09090909090909 0  0 3.636363636363634 0  0 3.18181818181818 0  0 2.727272727272726 0  0 2.272727272727271 0  0 1.818181818181817 0  0 1.363636363636363 0  0 0.9090909090909092 0  0 0.454545454545455 0  0 -0.4545454545450807 0  0 -0.9090909090895867 0  0 -1.363636363633713 0  0 -1.818181818177841 0  0 -2.272727272723127 0  0 -2.727272727269273 0  0 -3.181818181815419 0  0 -3.636363636361564 0  0 -4.090909090907709 0  0 -4.545454545453855 0  8 -4.499999999999999 0  8 -3.999999999999999 0  8 -3.499999999999999 0  8 -3 0  8.137254901963859 -2.5 0  8.274509803926303 -2.5 0  8.411764705886863 -2.5 0  8.549019607849138 -2.5 0  8.686274509809513 -2.5 0  8.82352941176989 -2.5 0  8.960784313730265 -2.5 0  9.098039215690642 -2.5 0  9.235294117651017 -2.5 0  9.372549019611395 -2.5 0  9.50980392157177 -2.5 0  9.647058823532147 -2.5 0  9.784313725492522 -2.5 0  9.921568627452897 -2.5 0  10.05882352941327 -2.5 0  10.19607843137365 -2.5 0  10.33333333333402 -2.5 0  10.4705882352944 -2.5 0  10.60784313725478 -2.5 0  10.74509803921515 -2.5 0  10.88235294117553 -2.5 0  11.0196078431359 -2.5 0  11.15686274509628 -2.5 0  11.29411764705665 -2.5 0  11.43137254901703 -2.5 0  11.56862745097915 -2.5 0  11.70588235294301 -2.5 0  11.84313725490686 -2.5 0  11.98039215687072 -2.5 0  12.11764705883209 -2.5 0  12.25490196079247 -2.5 0  12.39215686275285 -2.5 0  12.52941176471322 -2.5 0  12.6666666666736 -2.5 0  12.80392156863397 -2.5 0  12.94117647059435 -2.5 0  13.07843137255473 -2.5 0  13.2156862745151 -2.5 0  13.35294117647548 -2.5 0  13.49019607843586 -2.5 0  13.62745098039623 -2.5 0  13.76470588235661 -2.5 0  13.90196078431699 -2.5 0  14.03921568627736 -2.5 0  14.17647058823774 -2.5 0  14.31372549019812 -2.5 0  14.45098039215849 -2.5 0  14.58823529411887 -2.5 0  14.72549019607925 -2.5 0  14.86274509803962 -2.5 0  15.20270270270254 -2.5 0  15.40540540540509 -2.5 0  15.60810810810763 -2.5 0  15.81081081081017 -2.5 0  16.01351351351227 -2.5 0  16.21621621621265 -2.5 0  16.41891891891279 -2.5 0  16.62162162161294 -2.5 0  16.82432432431308 -2.5 0  17.02702702701322 -2.5 0  17.22972972971337 -2.5 0  17.43243243241351 -2.5 0  17.63513513511365 -2.5 0  17.83783783781379 -2.5 0  18.04054054051394 -2.5 0  18.24324324321408 -2.5 0  18.44594594591422 -2.5 0  18.64864864861436 -2.5 0  18.85135135131451 -2.5 0  19.05405405401465 -2.5 0  19.25675675671479 -2.5 0  19.45945945941494 -2.5 0  19.66216216211508 -2.5 0  19.86486486481522 -2.5 0  20.06756756751536 -2.5 0  20.27027027021551 -2.5 0  20.47297297291565 -2.5 0  20.6756756756158 -2.5 0  20.87837837831594 -2.5 0  21.08108108101608 -2.5 0  21.28378378371622 -2.5 0  21.48648648641637 -2.5 0  21.68918918911651 -2.5 0  21.89189189181666 -2.5 0  22.0945945945168 -2.5 0  22.29729729721694 -2.5 0  22.49999999991778 -2.5 0  22.70270270262203 -2.5 0  22.90540540532697 -2.5 0  23.10810810803191 -2.5 0  23.31081081073686 -2.5 0  23.5135135134418 -2.5 0  23.71621621614674 -2.5 0  23.91891891885169 -2.5 0  24.12162162155663 -2.5 0  24.32432432426158 -2.5 0  24.52702702696652 -2.5 0  24.72972972967146 -2.5 0  24.93243243237641 -2.5 0  25.13513513508135 -2.5 0  25.3378378377863 -2.5 0  25.54054054049124 -2.5 0  25.74324324319618 -2.5 0  25.94594594590112 -2.5 0  26.14864864860607 -2.5 0  26.35135135131101 -2.5 0  26.55405405401596 -2.5 0  26.7567567567209 -2.5 0  26.95945945942584 -2.5 0  27.16216216213079 -2.5 0  27.36486486483573 -2.5 0  27.56756756754068 -2.5 0  27.77027027024562 -2.5 0  27.97297297295056 -2.5 0  28.1756756756555 -2.5 0  28.37837837836045 -2.5 0  28.5810810810654 -2.5 0  28.78378378377034 -2.5 0  28.98648648647528 -2.5 0  29.18918918918023 -2.5 0  29.39189189188517 -2.5 0  29.59459459459011 -2.5 0  29.79729729729506 -2.5 0  30 -3.000000000000001 0  30 -3.500000000000001 0  30 -4.000000000000001 0  30 -4.5 0  8 4.499999999999999 0  8 3.999999999999999 0  8 3.499999999999999 0  8 3 0  8.137254901963859 2.5 0  8.274509803926303 2.5 0  8.411764705886863 2.5 0  8.549019607849138 2.5 0  8.686274509809513 2.5 0  8.82352941176989 2.5 0  8.960784313730265 2.5 0  9.098039215690642 2.5 0  9.235294117651017 2.5 0  9.372549019611395 2.5 0  9.50980392157177 2.5 0  9.647058823532147 2.5 0  9.784313725492522 2.5 0  9.921568627452897 2.5 0  10.05882352941327 2.5 0  10.19607843137365 2.5 0  10.33333333333402 2.5 0  10.4705882352944 2.5 0  10.60784313725478 2.5 0  10.74509803921515 2.5 0  10.88235294117553 2.5 0  11.0196078431359 2.5 0  11.15686274509628 2.5 0  11.29411764705665 2.5 0  11.43137254901703 2.5 0  11.56862745097915 2.5 0  11.70588235294301 2.5 0  11.84313725490686 2.5 0  11.98039215687072 2.5 0  12.11764705883209 2.5 0  12.25490196079247 2.5 0  1
[...]
<PointData  Vectors="f_17"> 
<DataArray  type="Float64"  Name="f_17"  NumberOfComponents="3" format="ascii">1.0000001299485266e+00 0.0000000000000000e+00 0.0000000000000000e+00  1.0417537695137784e+00 0.0000000000000000e+00 0.0000000000000000e+00  1.0566311110622761e+00 0.0000000000000000e+00 0.0000000000000000e+00  1.0922516672554048e+00 0.0000000000000000e+00 0.0000000000000000e+00  1.1111403355233069e+00 0.0000000000000000e+00 0.0000000000000000e+00  1.0715490153777356e+00 0.0000000000000000e+00 0.0000000000000000e+00  1.0393020748966184e+00 0.0000000000000000e+00 0.0000000000000000e+00  1.0000001299485266e+00 0.0000000000000000e+00 0.0000000000000000e+00  1.0211404957635060e+00 -5.2335690864745273e-02 0.0000000000000000e+00  1.0453837344735808e+00 -5.9916161828568223e-02 0.0000000000000000e+00  9.9994874751786711e-01 -2.9754200371351909e-02 0.0000000000000000e+00  1.1420632716879893e+00 -3.1840757645554205e-02 0.0000000000000000e+00  1.0629574620426046e+00 -9.1165671436251025e-02 0.0000000000000000e+00  1.0216766831612305e+00 4.9479120631978568e-02 0.0000000000000000e+00  0.0000000000000000e+00 0.0000000000000000e+00 0.0000000000000000e+00  0.0000000000000000e+00 0.0000000000000000e+00 0.0000000000000000e+00  1.0000001299485266e+00 0.0000000000000000e+00 0.0000000000000000e+00  9.9927532141009456e-01 0.0000000000000000e+00 0.0000000000000000e+00  9.9866510859275370e-01 0.0000000000000000e+00 0.0000000000000000e+00  1.0006864446526038e+00 0.0000000000000000e+00 0.0000000000000000e+00  1.0004379676086581e+00 0.0000000000000000e+00 0.0000000000000000e+00  1.0013677541598147e+00 0.0000000000000000e+00 0.0000000000000000e+00  1.0016554765804693e+00 0.0000000000000000e+00 0.0000000000000000e+00  1.0019635055988176e+00 0.0000000000000000e+00 0.0000000000000000e+00  1.0028349938217382e+00 0.0000000000000000e+00 0.0000000000000000e+00  1.0041009136842383e+00 0.0000000000000000e+00 0.0000000000000000e+00  1.0052938185080365e+00 0.0000000000000000e+00 0.0000000000000000e+00  1.0067969005326218e+00 0.0000000000000000e+00 0.0000000000000000e+00  1.0090724201151073e+00 0.0000000000000000e+00 0.0000000000000000e+00  1.0114175384161930e+00 0.0000000000000000e+00 0.0000000000000000e+00  1.0153007625409376e+00 0.0000000000000000e+00 0.0000000000000000e+00  1.0169793567563763e+00 0.0000000000000000e+00 0.0000000000000000e+00  1.0214824446156006e+00 0.0000000000000000e+00 0.0000000000000000e+00  1.0282159519737633e+00 0.0000000000000000e+00 0.0000000000000000e+00  1.0336742917866668e+00 0.0000000000000000e+00 0.0000000000000000e+00  1.0499419060390254e+00 0.0000000000000000e+00 0.0000000000000000e+00  1.0586071633829728e+00 0.0000000000000000e+00 0.0000000000000000e+00  1.0667012880676106e+00 0.0000000000000000e+00 0.0000000000000000e+00  1.0751569876479190e+00 0.0000000000000000e+00 0.0000000000000000e+00  1.0818063299402771e+00 0.0000000000000000e+00 0.0000000000000000e+00  1.0872776424060948e+00 0.0000000000000000e+00 0.0000000000000000e+00  1.0916402643941010e+00 0.0000000000000000e+00 0.0000000000000000e+00  1.0926190123418515e+00 0.0000000000000000e+00 0.0000000000000000e+00  1.0919780516999387e+00 0.0000000000000000e+00 0.0000000000000000e+00  1.0891435930256272e+00 0.0000000000000000e+00 0.0000000000000000e+00  1.0852466699077945e+00 0.0000000000000000e+00 0.0000000000000000e+00  1.0796492853871424e+00 0.0000000000000000e+00 0.0000000000000000e+00  1.0752792169709440e+00 0.0000000000000000e+00 0.0000000000000000e+00  1.0716136732259569e+00 0.0000000000000000e+00 0.0000000000000000e+00  1.0692053380694324e+00 0.0000000000000000e+00 0.0000000000000000e+00  1.0686896800790349e+00 0.0000000000000000e+00 0.0000000000000000e+00  1.0692758006878469e+00 0.0000000000000000e+00 0.0000000000000000e+00  1.0704774362189109e+00 0.0000000000000000e+00 0.0000000000000000e+00  1.0709884504033229e+00 0.0000000000000000e+00 0.0000000000000000e+00  1.0699189667170756e+00 0.0000000000000000e+00 0.0000000000000000e+00  1.0681863441909585e+00 0.0000000000000000e+00 0.0000000000000000e+00  1.0648571182170519e+00 0.0000000000000000e+00 0.0000000000000000e+00  1.0587514492866559e+00 0.0000000000000000e+00 0.0000000000000000e+00  1.0527628286947610e+00 0.0000000000000000e+00 0.0000000000000000e+00  1.0468153977668460e+00 0.0000000000000000e+00 0.0000000000000000e+00  1.0420910633537603e+00 0.0000000000000000e+00 0.0000000000000000e+00  1.0398385655463731e+00 0.0000000000000000e+00 0.0000000000000000e+00  1.0397120841676522e+00 0.0000000000000000e+00 0.0000000000000000e+00  1.0421203724701316e+00 0.0000000000000000e+00 0.0000000000000000e+00  1.0470012550505283e+00 0.0000000000000000e+00 0.0000000000000000e+00  1.0521707488050915e+00 0.0000000000000000e+00 0.0000000000000000e+00  1.0571525078838475e+00 0.0000000000000000e+00 0.0000000000000000e+00  1.0624586313521032e+00 0.0000000000000000e+00 0.0000000000000000e+00  1.0645647155231379e+00 0.0000000000000000e+00 0.0000000000000000e+00  1.0640091422982103e+00 0.0000000000000000e+00 0.0000000000000000e+00  1.0620688876298818e+00 0.0000000000000000e+00 0.0000000000000000e+00  1.0578210414244142e+00 0.0000000000000000e+00 0.0000000000000000e+00  1.0529069331007812e+00 0.0000000000000000e+00 0.0000000000000000e+00  1.0501187043402882e+00 0.0000000000000000e+00 0.0000000000000000e+00  1.0478633546447651e+00 0.0000000000000000e+00 0.0000000000000000e+00  1.0475997595510707e+00 0.0000000000000000e+00 0.0000000000000000e+00  1.0502731518356490e+00 0.0000000000000000e+00 0.0000000000000000e+00  1.0539765954872691e+00 0.0000000000000000e+00 0.0000000000000000e+00  1.0586201994378903e+00 0.0000000000000000e+00 0.0000000000000000e+00  1.0639730429157679e+00 0.0000000000000000e+00 0.0000000000000000e+00  1.0674006477074931e+00 0.0000000000000000e+00 0.0000000000000000e+00  1.0686688930734249e+00 0.0000000000000000e+00 0.0000000000000000e+00  1.0703198731180152e+00 0.0000000000000000e+00 0.0000000000000000e+00  1.0680736900974714e+00 0.0000000000000000e+00 0.0000000000000000e+00  1.0628902109132277e+00 0.0000000000000000e+00 0.0000000000000000e+00  1.0586365673466251e+00 0.0000000000000000e+00 0.0000000000000000e+00  1.0567935540482298e+00 0.0000000000000000e+00 0.0000000000000000e+00  1.0555096677211375e+00 0.0000000000000000e+00 0.0000000000000000e+00  1.0592811418939052e+00 0.0000000000000000e+00 0.0000000000000000e+00  1.0624474816679754e+00 0.0000000000000000e+00 0.0000000000000000e+00  1.0661921401708132e+00 0.0000000000000000e+00 0.0000000000000000e+00  1.0704022194829801e+00 0.0000000000000000e+00 0.0000000000000000e+00  1.0733630140889663e+00 0.0000000000000000e+00 0.0000000000000000e+00  1.0742134061407056e+00 0.0000000000000000e+00 0.0000000000000000e+00  1.0731931607954135e+00 0.0000000000000000e+00 0.0000000000000000e+00  1.0712035130024447e+00 0.0000000000000000e+00 0.0000000000000000e+00  1.0685338893371006e+00 0.0000000000000000e+00 0.0000000000000000e+00  1.0658375101400541e+00 0.0000000000000000e+00 0.0000000000000000e+00  1.0647688041693568e+00 0.0000000000000000e+00 0.0000000000000000e+00  1.0655112217804532e+00 0.0000000000000000e+00 0.0000000000000000e+00  1.0677809422449958e+00 0.0000000000000000e+00 0.0000000000000000e+00  1.0721307780025624e+00 0.0000000000000000e+00 0.0000000000000000e+00  1.0771287971871533e+00 0.0000000000000000e+00 0.0000000000000000e+00  1.0825179675060630e+00 0.0000000000000000e+00 0.0000000000000000e+00  1.0858381996332758e+00 0.0000000000000000e+00 0.0000000000000000e+00  1.0882033588803421e+00 0.0000000000000000e+00 0.0000000000000000e+00  1.0886540395805440e+00 0.0000000000000000e+00 0.0000000000000000e+00  1.0887749802285205e+00 0.0000000000000000e+00 0.0000000000000000e+00  1.0878927912711078e+00 0.0000000000000000e+00 0.0000000000000000e+00  1.0882394540269487e+00 0.0000000000000000e+00 0.0000000000000000e+00  1.0889633139803603e+00 0.0000000000000000e+00 0.0000000000000000e+00  1.0918905396503500e+00 -3.9288900334582735e-03 0.0000000000000000e+00  1.0896559122348746e+00 -7.9621853554799858e-03 0.0000000000000000e+00  1.0844482602885761e+00 -1.1952238782285622e-02 0.0000000000000000e+00  1.0721006340425896e+00 -1.5557716201105066e-02 0.0000000000000000e+00  1.0512182092784659e+00 -1.9389855933145093e-02 0.0000000000000000e+00  1.0167200427054739e+00 -2.0553307964363811e-02 0.0000000000000000e+00  9.6737173507397090e-01 -2.6891331070870723e-02 0.0000000000000000e+00  9.0611380649252515e-01 -3.7336028425827568e-02 0.0000000000000000e+00  8.3405010688690817e-01 -5.5366423371677263e-02 0.0000000000000000e+00  7.5665189280313572e-01 -7.5284409931761637e-02 0.0000000000000000e+00  6.9124266107129761e-01 -8.5093023409339774e-02 0.0000000000000000e+00  6.6420704701984090e-01 -8.2452587047965917e-02 0.0000000000000000e+00  7.0320051180159215e-01 -6.5268164298050504e-02 0.0000000000000000e+00  8.1668067522805765e-01 -4.2996809644823990e-02 0.0000000000000000e+00  9.7373027130863943e-01 -7.1679683384256575e-03 0.0000000000000000e+00  1.1134690966550145e+00 1.8158143598269585e-02 0.0000000000000000e+00  1.1900449647703206e+00 2.8078302265300496e-02 0.0000000000000000e+00  1.2023881552005060e+00 2.9978725205287587e-02 0.0000000000000000e+00  1.1758455993894272e+00 2.2381203553426997e-02 0.0000000000000000e+00  1.1457378516354939e+00 1.6240735917773395e-02 0.0000000000000000e+00  1.1273045831785868e+00 1.1297545042614206e-02 0.0000000000000000e+00  1.1184139720003479e+00 7.3455359090110915e-03 0.0000000000000000e+00  1.1132214561107669e+00 3.4670290262927127e-03 0.0000000000000000e+00  1.1063793142536522e+00 0.0000000000000000e+00 0.0000000000000000e+00  1.0999783155237239e+00 0.0000000000000000e+00 0.0000000000000000e+00  1.0925233650962800e+00 0.0000000000000000e+00 0.0000000000000000e+00  1.0856487453729309e+00 0.0000000000000000e+00 0.0000000000000000e+00  1.0793889405648875e+00 0.0000000000000000e+00 0.0000000000000000e+00  1.0756135178834529e+00 0.0000000000000000e+00 0.0000000000000000e+00  1.0740651226649864e+00 0.0000000000000000e+00 0.0000000000000000e+00  1.0747760630295835e+00 0.0000000000000000e+00 0.0000000000000000e+00  1.0759958120515818e+00 0.0000000000000000e+00 0.0000000000000000e+00  1.0779684043863544e+00 0.0000000000000000e+00 0.0000000000000000e+00  1.0792624265796540e+00 0.0000000000000000e+00 0.0000000000000000e+00  1.0793087501879288e+00 0.0000000000000000e+00 0.0000000000000000e+00  1.0777242547391275e+00 0.0000000000000000e+00 0.0000000000000000e+00  1.0753058790965753e+00 0.0000000000000000e+00 0.0000000000000000e+00  1.0708265609119803e+00 0.0000000000000000e+00 0.0000000000000000e+00  1.0671346601951250e+00 0.0000000000000000e+00 0.0000000000000000e+00  1.0626265495026987e+00 0.0000000000000000e+00 0.0000000000000000e+00  1.0601021173972127e+00 0.0000000000000000e+00 0.0000000000000000e+00  1.0593106442703613e+00 0.0000000000000000e+00 0.0000000000000000e+00  1.0610511619287639e+00 0.0000000000000000e+00 0.0000000000000000e+00  1.0638585378416561e+00 0.0000000000000000e+00 0.0000000000000000e+00  1.0670383107113663e+00 0.0000000000000000e+00 0.0000000000000000e+00  1.0700795854012373e+00 0.0000000000000000e+00 0.0000000000000000e+00  1.0704024207152367e+00 0.0000000000000000e+00 0.0000000000000000e+00  1.0680092825523690e+00 0.0000000000000000e+00 0.0000000000000000e+00  1.0632344578922857e+00 0.0000000000000000e+00 0.0000000000000000e+00  1.0592878229310287e+00 0.0000000000000000e+00 0.0000000000000000e+00  1.0564753072138491e+00 0.0000000000000000e+00 0.0000000000000000e+00  1.0537375482776563e+00 0.0000000000000000e+00 0.0000000000000000e+00  1.0508542784689898e+00 0.0000000000000000e+00 0.0000000000000000e+00  1.0522365762147441e+00 0.0000000000000000e+00 0.0000000000000000e+00  1.0552979036918890e+00 0.0000000000000000e+00 0.0000000000000000e+00  1.0586227784875308e+00 0.0000000000000000e+00 0.0000000000000000e+00  1.0626756727858699e+00 0.0000000000000000e+00 0.0000000000000000e+00  1.0657879514812907e+00 0.0000000000000000e+00 0.0000000000000000e+00  1.0663860088584387e+00 0.0000000000000000e+00 0.0000000000000000e+00  1.0654219679884454e+00 0.0000000000000000e+00 0.0000000000000000e+00  1.0620248796587930e+00 0.0000000000000000e+00 0.0000000000000000e+00  1.0562022055554665e+00 0.0000000000000000e+00 0.0000000000000000e+00  1.0510858344333811e+00 0.0000000000000000e+00 0.0000000000000000e+00  1.0464669668664772e+00 0.0000000000000000e+00 0.0000000000000000e+00  1.0424484622734822e+00 0.0000000000000000e+00 0.0000000000000000e+00  1.0416697722553971e+00 0.0000000000000000e+00 0.0000000000000000e+00  1.0430953158963494e+00 0.0000000000000000e+00 0.0000000000000000e+00  1.0455535983390516e+00 0.0000000000000000e+00 0.0000000000000000e+00  1.0508253960334355e+00 0.0000000000000000e+00 0.0000000000000000e+00  1.0563562047463881e+00 0.0000000000000000e+00 0.0000000000000000e+00  1.0603621764427327e+00 0.0000000000000000e+00 0.0000000000000000e+00  1.0629991781244936e+00 0.0000000000000000e+00 0.0000000000000000e+00  1.0634105875894140e+00 0.0000000000000000e+00 0.0000000000000000e+00  1.0610588466938482e+00 0.0000000000000000e+00 0.0000000000000000e+00  1.0573720961597353e+00 0.0000000000000000e+00 0.0000000000000000e+00  1.0528677314335300e+00 0.0000000000000000e+00 0.0000000000000000e+00  1.0485247072515342e+00 0.0000000000000000e+00 0.0000000000000000e+00  1.0463400787361239e+00 0.0000000000000000e+00 0.0000000000000000e+00  1.0451851964087933e+00 0.0000000000000000e+00 0.0000000000000000e+00  1.0468992389167302e+00 0.0000000000000000e+00 0.0000000000000000e+00  1.0516858732850471e+00 0.0000000000000000e+00 0.0000000000000000e+00  1.0582034491070391e+00 0.0000000000000000e+00 0.0000000000000000e+00  1.0652533135309694e+00 0.0000000000000000e+00 0.0000000000000000e+00  1.0721579058400221e+00 0.0000000000000000e+00 0.0000000000000000e+00  1.0789253969550630e+00 0.0000000000000000e+00 0.0000000000000000e+00  1.0853921566153832e+00 0.0000000000000000e+00 0.0000000000000000e+00  1.0897111914768525e+00 0.0000000000000000e+00 0.0000000000000000e+00  1.0923126675539030e+00 0.0000000000000000e+00 0.0000000000000000e+00  1.0948909231759256e+00 0.0000000000000000e+00 0.0000000000000000e+00  1.0944766276774798e+00 0.0000000000000000e+00 0.0000000000000000e+00  1.0937318944561925e+00 0.0000000000000000e+00 0.0000000000000000e+00  1.0914365956212551e+00 0.0000000000000000e+00 0.0000000000000000e+00  1.0873247934298980e+00 0.0000000000000000e+00 0.0000000000000000e+00  1.0822372106030043e+00 0.0000000000000000e+00 0.0000000000000000e+00  1.0764394145459488e+00 0.0000000000000000e+00 0.0000000000000000e+00  1.0698143540065053e+00 0.0000000000000000e+00 0.0000000000000000e+00  1.0619141488033719e+00 0.0000000000000000e+00 0.0000000000000000e+00  1.0547088397108753e+00 0.0000000000000000e+00 0.0000000000000000e+00  1.0468486718171317e+00 0.0000000000000000e+00 0.0000000000000000e+00  1.0319632056497314e+00 0.0000000000000000e+00 0.0000000000000000e+00  1.0255272477746051e+00 0.0000000000000000e+00 0.0000000000000000e+00  1.0204141672866713e+00 0.0000000000000000e+00 0.0000000000000000e+00  1.0158028862399546e+00 0.0000000000000000e+00 0.0000000000000000e+00  1.0120470174667586e+00 0.0000000000000000e+00 0.0000000000000000e+00  1.0090948413808223e+00 0.0000000000000000e+00 0.0000000000000000e+00  1.0068849263448318e+00 0.0000000000000000e+00 0.0000000000000000e+00  1.0047750734154148e+00 0.0000000000000000e+00 0.0000000000000000e+00  1.0033579176738963e+00 0.0000000000000000e+00 0.0000000000000000e+00  1.0024377197229406e+00 0.0000000000000000e+00 0.0000000000000000e+00  1.0013582913582630e+00 0.0000000000000000e+00 0.0000000000000000e+00  1.0012865313315649e+00 0.0000000000000000e+00 0.0000000000000000e+00  1.0002972572191806e+00 0.0000000000000000e+00 0.0000000000000000e+00  1.0003215306566371e+00 0.0000000000000000e+00 0.0000000000000000e+00  9.9991348074043751e-01 0.0000000000000000e+00 0.0000000000000000e+00  1.0005772156184976e+00 0.0000000000000000e+00 0.0000000000000000e+00  1.0002939730406912e+00 0.0000000000000000e+00 0.0000000000000000e+00  9.9980554640965424e-01 0.0000000000000000e+00 0.0000000000000000e+00  1.0000001299485266e+00 0.0000000000000000e+00 0.0000000000000000e+00  1.0000001299485266e+00 0.0000000000000000e+00 0.0000000000000000e+00  1.0000001299485266e+00 0.0000000000000000e+00 0.0000000000000000e+00  1.0000001299485266e+00 0.0000000000000000e+00 0.0000000000000000e+00  1.0000001299485266e+00 0.0000000000000000e+00 0.0000000000000000e+00  1.0000001299485266e+00 0.0000000000000000e+00 0.0000000000000000e+00  1.0000001299485266e+00 0.0000000000000000e+00 0.0000000000000000e+00  1.0000001299485266e+00 0.0000000000000000e+00 0.0000000000000000e+00  1.0000001299485266e+00 0.0000000000000000e+00 0.0000000000000000e+00  1.0000001299485266e+00 0.0000000000000000e+00 0.0000000000000000e+00  1.0000001299485266e+00 0.0000000000000000e+00 0.0000000000000000e+00  1.0000001299485266e+00 0.0000000000000000e+00 0.0000000000000000e+00  1.0000001299485266e+00 0.0000000000000000e+00 0.0000000000000000e+00  1.0000001299485266e+00 0.0000000000000000e+00 0.0000000000000000e+00  1.0000001299485266e+00 0.0000000000000000e+00 0.0000000000000000e+00  1.0000001299485266e+00 0.0000000000000000e+00 0.0000000000000000e+00  1.0000001299485266e+00 0.0000000000000000e+00 0.0000000000000000e+00  1.0000001299485266e+00 0.0000000000000000e+00 0.0000000000000000e+00  1.0000001299485266e+00 0.0000000000000000e+00 0.0000000000000000e+00  1.0000001299485266e+00 0.0000000000000000e+00 0.0000000000000000e+00  1.0411510335278034e+00 -9.5858655104396392e-03 0.0000000000000000e+00  1.0381346594375902e+00 -1.9364969841284992e-02 0.0000000000000000e+00  1.0358470150761228e+00 -2.9882348815347893e-02 0.0000000000000000e+00  1.0299689068459505e+00 -4.0986164625253653e-02 0.0000000000000000e+00  1.0238877093410659e+00 -5.6214627985841634e-02 0.0000000000000000e+00  1.0283609383523920e+00 -5.9748594911231558e-02 0.0000000000000000e+00  1.0324960763620494e+00 -6.3348913466721626e-02 0.0000000000000000e+00  1.0376493843902925e+00 -6.6656299567096733e-02 0.0000000000000000e+00  1.0431018590755243e+00 -6.9801604883710899e-02 0.0000000000000000e+00  1.0491981307392024e+00 -7.2532064451302669e-02 0.0000000000000000e+00  1.0558928943610564e+00 -7.4882380877805493e-02 0.0000000000000000e+00  1.0630681677659528e+00 -7.6554705258526159e-02 0.0000000000000000e+00  1.0707655140178447e+00 -7.7654625119514931e-02 0.0000000000000000e+00  1.0786307723512765e+00 -7.7839626737361167e-02 0.0000000000000000e+00  1.0868376605629226e+00 -7.7321344815742044e-02 0.0000000000000000e+00  1.0951199061906305e+00 -7.5962373220002433e-02 0.0000000000000000e+00  1.1034893843430671e+00 -7.3479870441797018e-02 0.0000000000000000e+00  1.1115110924616509e+00 -6.9990175250470271e-02 0.0000000000000000e+00  1.1192542384999060e+00 -6.5682073813224773e-02 0.0000000000000000e+00  1.1265548975121187e+00 -6.0453585805408362e-02 0.0000000000000000e+00  1.1331728883312440e+00 -5.4325209591741468e-02 0.0000000000000000e+00  1.1391186795948771e+00 -4.7452708547347532e-02 0.0000000000000000e+00  1.1442188800753157e+00 -3.9932134384125594e-02 0.0000000000000000e+00  1.1484667627574898e+00 -3.1667721646089789e-02 0.0000000000000000e+00  1.1517555655283858e+00 -2.3106240528508737e-02 0.0000000000000000e+00  1.1540417412360282e+00 -1.4003798005375911e-02 0.0000000000000000e+00  1.1550908078920448e+00 -4.5437070247175259e-03 0.0000000000000000e+00  1.1551533034449857e+00 5.0086985917312402e-03 0.0000000000000000e+00  1.1538565760256714e+00 1.4551013114775534e-02 0.0000000000000000e+00  1.1513666170823798e+00 2.4007819750089462e-02 0.0000000000000000e+00  1.1475710105627552e+00 3.3169048386672610e-02 0.0000000000000000e+00  1.1424779925225643e+00 4.1734228026520472e-02 0.0000000000000000e+00  1.1362028375201723e+00 4.9736859225878581e-02 0.0000000000000000e+00  1.1287263601087281e+00 5.6952347994647448e-02 0.0000000000000000e+00  1.1202766373294037e+00 6.3044713304056532e-02 0.0000000000000000e+00  1.1109302873344289e+00 6.7941724005