<?xml version="1.0"?>
<VTKFile type="UnstructuredGrid"  version="0.1"  >
<UnstructuredGrid>
<Piece  NumberOfPoints="10199" NumberOfCells="20110">
<Points>
<DataArray  type="Float64"  NumberOfComponents="3"  format="ascii">0 -5 0  8 -5 0  30 -5 0  40 -5 0  40 5 0  30 5 0  8 5 0  0 5 0  8 -2.5 0  15 -2.5 0  30 -2.5 0  30 2.5 0  15 2.5 0  8 2.5 0  10 0.5 0  10 -0.5 0  0 0 0  0.4210526315780956 -5 0  0.8421052631563433 -5 0  1.263157894734281 -5 0  1.684210526311999 -5 0  2.105263157889717 -5 0  2.526315789467435 -5 0  2.947368421045153 -5 0  3.368421052622872 -5 0  3.78947368420059 -5 0  4.210526315779479 -5 0  4.631578947359537 -5 0  5.052631578939595 -5 0  5.473684210519653 -5 0  5.89473684209971 -5 0  6.315789473679768 -5 0  6.736842105259826 -5 0  7.157894736839884 -5 0  7.578947368419942 -5 0  8.407407407405314 -5 0  8.814814814810628 -5 0  9.222222222215942 -5 0  9.629629629621256 -5 0  10.03703703702657 -5 0  10.44444444443188 -5 0  10.8518518518372 -5 0  11.25925925924251 -5 0  11.66666666664783 -5 0  12.07407407405314 -5 0  12.48148148145846 -5 0  12.88888888886377 -5 0  13.29629629626908 -5 0  13.7037037036744 -5 0  14.11111111107971 -5 0  14.51851851848502 -5 0  14.92592592589034 -5 0  15.33333333329565 -5 0  15.74074074070096 -5 0  16.14814814810754 -5 0  16.55555555551614 -5 0  16.96296296292474 -5 0  17.37037037033335 -5 0  17.77777777774195 -5 0  18.18518518515056 -5 0  18.59259259255916 -5 0  18.99999999996776 -5 0  19.40740740737636 -5 0  19.81481481478497 -5 0  20.22222222219357 -5 0  20.62962962960217 -5 0  21.03703703701077 -5 0  21.44444444441937 -5 0  21.85185185182797 -5 0  22.25925925923657 -5 0  22.66666666664518 -5 0  23.07407407405378 -5 0  23.48148148146238 -5 0  23.88888888887098 -5 0  24.29629629627958 -5 0  24.70370370368818 -5 0  25.11111111109678 -5 0  25.51851851850539 -5 0  25.92592592591399 -5 0  26.33333333332259 -5 0  26.74074074073119 -5 0  27.14814814813979 -5 0  27.55555555554839 -5 0  27.96296296295699 -5 0  28.3703703703656 -5 0  28.7777777777742 -5 0  29.1851851851828 -5 0  29.5925925925914 -5 0  30.41666666667852 -5 0  30.83333333335704 -5 0  31.25000000003556 -5 0  31.66666666671408 -5 0  32.08333333338936 -5 0  32.50000000005308 -5 0  32.9166666667168 -5 0  33.33333333338052 -5 0  33.75000000004424 -5 0  34.16666666670795 -5 0  34.58333333337167 -5 0  35.00000000003539 -5 0  35.41666666669911 -5 0  35.83333333336282 -5 0  36.25000000002654 -5 0  36.66666666669026 -5 0  37.08333333335398 -5 0  37.50000000001769 -5 0  37.91666666668141 -5 0  38.33333333334513 -5 0  38.75000000000885 -5 0  39.16666666667257 -5 0  39.58333333333628 -5 0  40 -4.583333333332821 0  40 -4.166666666665642 0  40 -3.74999999999855 0  40 -3.333333333333135 0  40 -2.916666666667806 0  40 -2.500000000002478 0  40 -2.083333333337148 0  40 -1.666666666671818 0  40 -1.250000000006488 0  40 -0.8333333333405228 0  40 -0.4166666666733416 0  40 -6.163070054299169e-12 0  40 0.4166666666610173 0  40 0.8333333333281976 0  40 1.249999999995378 0  40 1.666666666662558 0  40 2.083333333329739 0  40 2.499999999996919 0  40 2.916666666664099 0  40 3.33333333333128 0  40 3.74999999999846 0  40 4.166666666665641 0  40 4.583333333332821 0  39.58333333333628 5 0  39.16666666667256 5 0  38.75000000000885 5 0  38.33333333334513 5 0  37.91666666668141 5 0  37.50000000001769 5 0  37.08333333335398 5 0  36.66666666669025 5 0  36.25000000002654 5 0  35.83333333336282 5 0  35.41666666669911 5 0  35.00000000003539 5 0  34.58333333337167 5 0  34.16666666670795 5 0  33.75000000004424 5 0  33.33333333338052 5 0  32.9166666667168 5 0  32.50000000005308 5 0  32.08333333338936 5 0  31.66666666671408 5 0  31.25000000003556 5 0  30.83333333335704 5 0  30.41666666667852 5 0  29.59259259259259 5 0  29.18518518518519 5 0  28.77777777777778 5 0  28.37037037037037 5 0  27.96296296296296 5 0  27.55555555555556 5 0  27.14814814814815 5 0  26.74074074074074 5 0  26.33333333333333 5 0  25.92592592592593 5 0  25.51851851851852 5 0  25.11111111111111 5 0  24.7037037037037 5 0  24.2962962962963 5 0  23.88888888888889 5 0  23.48148148148148 5 0  23.07407407407408 5 0  22.66666666666667 5 0  22.25925925925926 5 0  21.85185185185185 5 0  21.44444444444445 5 0  21.03703703703704 5 0  20.62962962962963 5 0  20.22222222222222 5 0  19.81481481481482 5 0  19.40740740740741 5 0  19 5 0  18.5925925925926 5 0  18.18518518518519 5 0  17.77777777777778 5 0  17.37037037037037 5 0  16.96296296296296 5 0  16.55555555555556 5 0  16.14814814814815 5 0  15.74074074074074 5 0  15.33333333333333 5 0  14.92592592592593 5 0  14.51851851851852 5 0  14.11111111111111 5 0  13.70370370370371 5 0  13.2962962962963 5 0  12.88888888888889 5 0  12.48148148148148 5 0  12.07407407407408 5 0  11.66666666666667 5 0  11.25925925925926 5 0  10.85185185185185 5 0  10.44444444444445 5 0  10.03703703703704 5 0  9.629629629629633 5 0  9.222222222222221 5 0  8.814814814814817 5 0  8.407407407407408 5 0  7.5789473684193 5 0  7.157894736838599 5 0  6.73684210526082 5 0  6.315789473684795 5 0  5.894736842108769 5 0  5.473684210532742 5 0  5.052631578956715 5 0  4.631578947380689 5 0  4.210526315804662 5 0  3.789473684226299 5 0  3.368421052645599 5 0  2.947368421064898 5 0  2.526315789484198 5 0  2.105263157903499 5 0  1.6842105263228 5 0  1.2631578947421 5 0  0.8421052631613994 5 0  0.4210526315806993 5 0  0 4.545454545454545 0  0 4.09090909090909 0  0 3.636363636363634 0  0 3.18181818181818 0  0 2.727272727272726 0  0 2.272727272727271 0  0 1.818181818181817 0  0 1.363636363636363 0  0 0.9090909090909092 0  0 0.454545454545455 0  0 -0.4545454545450807 0  0 -0.9090909090895867 0  0 -1.363636363633713 0  0 -1.818181818177841 0  0 -2.272727272723127 0  0 -2.727272727269273 0  0 -3.181818181815419 0  0 -3.636363636361564 0  0 -4.090909090907709 0  0 -4.545454545453855 0  8 -4.499999999999999 0  8 -3.999999999999999 0  8 -3.499999999999999 0  8 -3 0  8.137254901963859 -2.5 0  8.274509803926303 -2.5 0  8.411764705886863 -2.5 0  8.549019607849138 -2.5 0  8.686274509809513 -2.5 0  8.82352941176989 -2.5 0  8.960784313730265 -2.5 0  9.098039215690642 -2.5 0  9.235294117651017 -2.5 0  9.372549019611395 -2.5 0  9.50980392157177 -2.5 0  9.647058823532147 -2.5 0  9.784313725492522 -2.5 0  9.921568627452897 -2.5 0  10.05882352941327 -2.5 0  10.19607843137365 -2.5 0  10.33333333333402 -2.5 0  10.4705882352944 -2.5 0  10.60784313725478 -2.5 0  10.74509803921515 -2.5 0  10.88235294117553 -2.5 0  11.0196078431359 -2.5 0  11.15686274509628 -2.5 0  11.29411764705665 -2.5 0  11.43137254901703 -2.5 0  11.56862745097915 -2.5 0  11.70588235294301 -2.5 0  11.84313725490686 -2.5 0  11.98039215687072 -2.5 0  12.11764705883209 -2.5 0  12.25490196079247 -2.5 0  12.39215686275285 -2.5 0  12.52941176471322 -2.5 0  12.6666666666736 -2.5 0  12.80392156863397 -2.5 0  12.94117647059435 -2.5 0  13.07843137255473 -2.5 0  13.2156862745151 -2.5 0  13.35294117647548 -2.5 0  13.49019607843586 -2.5 0  13.62745098039623 -2.5 0  13.76470588235661 -2.5 0  13.90196078431699 -2.5 0  14.03921568627736 -2.5 0  14.17647058823774 -2.5 0  14.31372549019812 -2.5 0  14.45098039215849 -2.5 0  14.58823529411887 -2.5 0  14.72549019607925 -2.5 0  14.86274509803962 -2.5 0  15.20270270270254 -2.5 0  15.40540540540509 -2.5 0  15.60810810810763 -2.5 0  15.81081081081017 -2.5 0  16.01351351351227 -2.5 0  16.21621621621265 -2.5 0  16.41891891891279 -2.5 0  16.62162162161294 -2.5 0  16.82432432431308 -2.5 0  17.02702702701322 -2.5 0  17.22972972971337 -2.5 0  17.43243243241351 -2.5 0  17.63513513511365 -2.5 0  17.83783783781379 -2.5 0  18.04054054051394 -2.5 0  18.24324324321408 -2.5 0  18.44594594591422 -2.5 0  18.64864864861436 -2.5 0  18.85135135131451 -2.5 0  19.05405405401465 -2.5 0  19.25675675671479 -2.5 0  19.45945945941494 -2.5 0  19.66216216211508 -2.5 0  19.86486486481522 -2.5 0  20.06756756751536 -2.5 0  20.27027027021551 -2.5 0  20.47297297291565 -2.5 0  20.6756756756158 -2.5 0  20.87837837831594 -2.5 0  21.08108108101608 -2.5 0  21.28378378371622 -2.5 0  21.48648648641637 -2.5 0  21.68918918911651 -2.5 0  21.89189189181666 -2.5 0  22.0945945945168 -2.5 0  22.29729729721694 -2.5 0  22.49999999991778 -2.5 0  22.70270270262203 -2.5 0  22.90540540532697 -2.5 0  23.10810810803191 -2.5 0  23.31081081073686 -2.5 0  23.5135135134418 -2.5 0  23.71621621614674 -2.5 0  23.91891891885169 -2.5 0  24.12162162155663 -2.5 0  24.32432432426158 -2.5 0  24.52702702696652 -2.5 0  24.72972972967146 -2.5 0  24.93243243237641 -2.5 0  25.13513513508135 -2.5 0  25.3378378377863 -2.5 0  25.54054054049124 -2.5 0  25.74324324319618 -2.5 0  25.94594594590112 -2.5 0  26.14864864860607 -2.5 0  26.35135135131101 -2.5 0  26.55405405401596 -2.5 0  26.7567567567209 -2.5 0  26.95945945942584 -2.5 0  27.16216216213079 -2.5 0  27.36486486483573 -2.5 0  27.56756756754068 -2.5 0  27.77027027024562 -2.5 0  27.97297297295056 -2.5 0  28.1756756756555 -2.5 0  28.37837837836045 -2.5 0  28.5810810810654 -2.5 0  28.78378378377034 -2.5 0  28.98648648647528 -2.5 0  29.18918918918023 -2.5 0  29.39189189188517 -2.5 0  29.59459459459011 -2.5 0  29.79729729729506 -2.5 0  30 -3.000000000000001 0  30 -3.500000000000001 0  30 -4.000000000000001 0  30 -4.5 0  8 4.499999999999999 0  8 3.999999999999999 0  8 3.499999999999999 0  8 3 0  8.137254901963859 2.5 0  8.274509803926303 2.5 0  8.411764705886863 2.5 0  8.549019607849138 2.5 0  8.686274509809513 2.5 0  8.82352941176989 2.5 0  8.960784313730265 2.5 0  9.098039215690642 2.5 0  9.235294117651017 2.5 0  9.372549019611395 2.5 0  9.50980392157177 2.5 0  9.647058823532147 2.5 0  9.784313725492522 2.5 0  9.921568627452897 2.5 0  10.05882352941327 2.5 0  10.19607843137365 2.5 0  10.33333333333402 2.5 0  10.4705882352944 2.5 0  10.60784313725478 2.5 0  10.74509803921515 2.5 0  10.88235294117553 2.5 0  11.0196078431359 2.5 0  11.15686274509628 2.5 0  11.29411764705665 2.5 0  11.43137254901703 2.5 0  11.56862745097915 2.5 0  11.70588235294301 2.5 0  11.84313725490686 2.5 0  11.98039215687072 2.5 0  12.11764705883209 2.5 0  12.25490196079247 2.5 0  1
[...]
<PointData  Vectors="f_17"> 
<DataArray  type="Float64"  Name="f_17"  NumberOfComponents="3" format="ascii">1.0000001322527099e+00 0.0000000000000000e+00 0.0000000000000000e+00  1.0390170679366395e+00 0.0000000000000000e+00 0.0000000000000000e+00  1.0559453531262621e+00 0.0000000000000000e+00 0.0000000000000000e+00  1.0801365270785224e+00 0.0000000000000000e+00 0.0000000000000000e+00  1.0858578492711914e+00 0.0000000000000000e+00 0.0000000000000000e+00  1.0583630466751119e+00 0.0000000000000000e+00 0.0000000000000000e+00  1.0419084295661338e+00 0.0000000000000000e+00 0.0000000000000000e+00  1.0000001322527099e+00 0.0000000000000000e+00 0.0000000000000000e+00  1.0175432445242782e+00 -4.9813961317242750e-02 0.0000000000000000e+00  9.8964605401302197e-01 4.0218251139873464e-02 0.0000000000000000e+00  1.0324796420654296e+00 7.6530913635195014e-02 0.0000000000000000e+00  1.1068735073744957e+00 8.7001491915511375e-02 0.0000000000000000e+00  1.1395574502629913e+00 -1.2747311258171802e-02 0.0000000000000000e+00  1.0252407021710732e+00 5.1856461514224177e-02 0.0000000000000000e+00  0.0000000000000000e+00 0.0000000000000000e+00 0.0000000000000000e+00  0.0000000000000000e+00 0.0000000000000000e+00 0.0000000000000000e+00  1.0000001322527099e+00 0.0000000000000000e+00 0.0000000000000000e+00  9.9929091261124048e-01 0.0000000000000000e+00 0.0000000000000000e+00  9.9869689674220286e-01 0.0000000000000000e+00 0.0000000000000000e+00  1.0006839863971473e+00 0.0000000000000000e+00 0.0000000000000000e+00  1.0003840861213467e+00 0.0000000000000000e+00 0.0000000000000000e+00  1.0011957452579314e+00 0.0000000000000000e+00 0.0000000000000000e+00  1.0013193745788735e+00 0.0000000000000000e+00 0.0000000000000000e+00  1.0014080463016595e+00 0.0000000000000000e+00 0.0000000000000000e+00  1.0020299676852091e+00 0.0000000000000000e+00 0.0000000000000000e+00  1.0030455992226448e+00 0.0000000000000000e+00 0.0000000000000000e+00  1.0040092894424535e+00 0.0000000000000000e+00 0.0000000000000000e+00  1.0053078049605089e+00 0.0000000000000000e+00 0.0000000000000000e+00  1.0074150730454228e+00 0.0000000000000000e+00 0.0000000000000000e+00  1.0096142194598881e+00 0.0000000000000000e+00 0.0000000000000000e+00  1.0133804515762588e+00 0.0000000000000000e+00 0.0000000000000000e+00  1.0149417993303416e+00 0.0000000000000000e+00 0.0000000000000000e+00  1.0192996536651042e+00 0.0000000000000000e+00 0.0000000000000000e+00  1.0258544784047734e+00 0.0000000000000000e+00 0.0000000000000000e+00  1.0311318780521890e+00 0.0000000000000000e+00 0.0000000000000000e+00  1.0470899436866676e+00 0.0000000000000000e+00 0.0000000000000000e+00  1.0557702455885991e+00 0.0000000000000000e+00 0.0000000000000000e+00  1.0640971170397540e+00 0.0000000000000000e+00 0.0000000000000000e+00  1.0731052938250418e+00 0.0000000000000000e+00 0.0000000000000000e+00  1.0807513666980617e+00 0.0000000000000000e+00 0.0000000000000000e+00  1.0877316172855975e+00 0.0000000000000000e+00 0.0000000000000000e+00  1.0940853663953665e+00 0.0000000000000000e+00 0.0000000000000000e+00  1.0974075797144178e+00 0.0000000000000000e+00 0.0000000000000000e+00  1.0992154880562304e+00 0.0000000000000000e+00 0.0000000000000000e+00  1.0984534867945470e+00 0.0000000000000000e+00 0.0000000000000000e+00  1.0957913003775686e+00 0.0000000000000000e+00 0.0000000000000000e+00  1.0900436295685036e+00 0.0000000000000000e+00 0.0000000000000000e+00  1.0838171836586223e+00 0.0000000000000000e+00 0.0000000000000000e+00  1.0764660123600109e+00 0.0000000000000000e+00 0.0000000000000000e+00  1.0690257425833067e+00 0.0000000000000000e+00 0.0000000000000000e+00  1.0628305299075658e+00 0.0000000000000000e+00 0.0000000000000000e+00  1.0581271753101729e+00 0.0000000000000000e+00 0.0000000000000000e+00  1.0556564508935529e+00 0.0000000000000000e+00 0.0000000000000000e+00  1.0550702213098451e+00 0.0000000000000000e+00 0.0000000000000000e+00  1.0560650849478745e+00 0.0000000000000000e+00 0.0000000000000000e+00  1.0593255929199561e+00 0.0000000000000000e+00 0.0000000000000000e+00  1.0630108544427890e+00 0.0000000000000000e+00 0.0000000000000000e+00  1.0645653919153584e+00 0.0000000000000000e+00 0.0000000000000000e+00  1.0651079991200922e+00 0.0000000000000000e+00 0.0000000000000000e+00  1.0633292127429523e+00 0.0000000000000000e+00 0.0000000000000000e+00  1.0594188047868673e+00 0.0000000000000000e+00 0.0000000000000000e+00  1.0545657130923269e+00 0.0000000000000000e+00 0.0000000000000000e+00  1.0488348145922699e+00 0.0000000000000000e+00 0.0000000000000000e+00  1.0438651804782377e+00 0.0000000000000000e+00 0.0000000000000000e+00  1.0407931669638080e+00 0.0000000000000000e+00 0.0000000000000000e+00  1.0392382444368036e+00 0.0000000000000000e+00 0.0000000000000000e+00  1.0399464650382240e+00 0.0000000000000000e+00 0.0000000000000000e+00  1.0444309786075594e+00 0.0000000000000000e+00 0.0000000000000000e+00  1.0492834274317060e+00 0.0000000000000000e+00 0.0000000000000000e+00  1.0543397289047025e+00 0.0000000000000000e+00 0.0000000000000000e+00  1.0597004170898250e+00 0.0000000000000000e+00 0.0000000000000000e+00  1.0624317749761292e+00 0.0000000000000000e+00 0.0000000000000000e+00  1.0626737499703400e+00 0.0000000000000000e+00 0.0000000000000000e+00  1.0619830138416966e+00 0.0000000000000000e+00 0.0000000000000000e+00  1.0586421121974892e+00 0.0000000000000000e+00 0.0000000000000000e+00  1.0542603365660630e+00 0.0000000000000000e+00 0.0000000000000000e+00  1.0508580878285989e+00 0.0000000000000000e+00 0.0000000000000000e+00  1.0478869879466983e+00 0.0000000000000000e+00 0.0000000000000000e+00  1.0467294884492784e+00 0.0000000000000000e+00 0.0000000000000000e+00  1.0482846809396664e+00 0.0000000000000000e+00 0.0000000000000000e+00  1.0507440359996827e+00 0.0000000000000000e+00 0.0000000000000000e+00  1.0540812317909325e+00 0.0000000000000000e+00 0.0000000000000000e+00  1.0603049788430723e+00 0.0000000000000000e+00 0.0000000000000000e+00  1.0637248758790674e+00 0.0000000000000000e+00 0.0000000000000000e+00  1.0640446326248028e+00 0.0000000000000000e+00 0.0000000000000000e+00  1.0634148959573246e+00 0.0000000000000000e+00 0.0000000000000000e+00  1.0625039157134732e+00 0.0000000000000000e+00 0.0000000000000000e+00  1.0591668797840104e+00 0.0000000000000000e+00 0.0000000000000000e+00  1.0527252546508958e+00 0.0000000000000000e+00 0.0000000000000000e+00  1.0501898479302094e+00 0.0000000000000000e+00 0.0000000000000000e+00  1.0495598583247647e+00 0.0000000000000000e+00 0.0000000000000000e+00  1.0516390867702063e+00 0.0000000000000000e+00 0.0000000000000000e+00  1.0554419314007917e+00 0.0000000000000000e+00 0.0000000000000000e+00  1.0593625794741894e+00 0.0000000000000000e+00 0.0000000000000000e+00  1.0632230292336933e+00 0.0000000000000000e+00 0.0000000000000000e+00  1.0660849217285895e+00 0.0000000000000000e+00 0.0000000000000000e+00  1.0673762371519186e+00 0.0000000000000000e+00 0.0000000000000000e+00  1.0662585789689771e+00 0.0000000000000000e+00 0.0000000000000000e+00  1.0641541586628434e+00 0.0000000000000000e+00 0.0000000000000000e+00  1.0610207756837586e+00 0.0000000000000000e+00 0.0000000000000000e+00  1.0578071756506069e+00 0.0000000000000000e+00 0.0000000000000000e+00  1.0561992164029634e+00 0.0000000000000000e+00 0.0000000000000000e+00  1.0563104040579059e+00 0.0000000000000000e+00 0.0000000000000000e+00  1.0590215040701947e+00 0.0000000000000000e+00 0.0000000000000000e+00  1.0627143347426655e+00 0.0000000000000000e+00 0.0000000000000000e+00  1.0680795308116500e+00 0.0000000000000000e+00 0.0000000000000000e+00  1.0732697788655483e+00 0.0000000000000000e+00 0.0000000000000000e+00  1.0783069642507110e+00 0.0000000000000000e+00 0.0000000000000000e+00  1.0810380286869197e+00 0.0000000000000000e+00 0.0000000000000000e+00  1.0824741996893541e+00 0.0000000000000000e+00 0.0000000000000000e+00  1.0813516038516930e+00 0.0000000000000000e+00 0.0000000000000000e+00  1.0808916365904406e+00 2.0243673616673211e-03 0.0000000000000000e+00  1.0823482837963592e+00 4.9938087393150022e-03 0.0000000000000000e+00  1.0845425221368676e+00 1.0360811377955794e-02 0.0000000000000000e+00  1.0860587909213426e+00 2.0645833012215953e-02 0.0000000000000000e+00  1.0886662720051912e+00 3.9703203398861728e-02 0.0000000000000000e+00  1.0848790139712130e+00 7.0160478838798127e-02 0.0000000000000000e+00  1.0637990419893182e+00 1.1524467321282017e-01 0.0000000000000000e+00  1.0149400876788781e+00 1.6535625426393086e-01 0.0000000000000000e+00  9.3898513107686599e-01 2.1234867050961212e-01 0.0000000000000000e+00  8.5326368906798133e-01 2.4067014142583493e-01 0.0000000000000000e+00  7.7978580819513399e-01 2.6254613247754499e-01 0.0000000000000000e+00  7.3878801823654605e-01 2.8058874098047271e-01 0.0000000000000000e+00  7.4916389713898301e-01 2.9756559881372446e-01 0.0000000000000000e+00  8.1013563082501372e-01 3.0837822483459815e-01 0.0000000000000000e+00  9.0325176786386319e-01 2.9984433382589731e-01 0.0000000000000000e+00  9.9465136621565220e-01 2.6051956245571017e-01 0.0000000000000000e+00  1.0541820886216939e+00 2.0135691669583816e-01 0.0000000000000000e+00  1.0768329690182534e+00 1.3747180566096215e-01 0.0000000000000000e+00  1.0811803274902529e+00 8.8884054890236944e-02 0.0000000000000000e+00  1.0844630994999278e+00 5.5214971214560496e-02 0.0000000000000000e+00  1.0863040929037098e+00 3.4304057489809796e-02 0.0000000000000000e+00  1.0871770493651263e+00 1.9959173630518270e-02 0.0000000000000000e+00  1.0865772357947197e+00 9.0341592330390134e-03 0.0000000000000000e+00  1.0773497268104679e+00 0.0000000000000000e+00 0.0000000000000000e+00  1.0705065489549037e+00 0.0000000000000000e+00 0.0000000000000000e+00  1.0659163333072919e+00 0.0000000000000000e+00 0.0000000000000000e+00  1.0643795887923888e+00 0.0000000000000000e+00 0.0000000000000000e+00  1.0643393506029937e+00 0.0000000000000000e+00 0.0000000000000000e+00  1.0660741311790578e+00 0.0000000000000000e+00 0.0000000000000000e+00  1.0683328061169517e+00 0.0000000000000000e+00 0.0000000000000000e+00  1.0701809966558118e+00 0.0000000000000000e+00 0.0000000000000000e+00  1.0698881687847677e+00 0.0000000000000000e+00 0.0000000000000000e+00  1.0682577050852502e+00 0.0000000000000000e+00 0.0000000000000000e+00  1.0648201933536798e+00 0.0000000000000000e+00 0.0000000000000000e+00  1.0602997483340477e+00 0.0000000000000000e+00 0.0000000000000000e+00  1.0557170914543921e+00 0.0000000000000000e+00 0.0000000000000000e+00  1.0528039035672991e+00 0.0000000000000000e+00 0.0000000000000000e+00  1.0507324275535901e+00 0.0000000000000000e+00 0.0000000000000000e+00  1.0516996876366085e+00 0.0000000000000000e+00 0.0000000000000000e+00  1.0532698413861692e+00 0.0000000000000000e+00 0.0000000000000000e+00  1.0566680870558480e+00 0.0000000000000000e+00 0.0000000000000000e+00  1.0601151729109168e+00 0.0000000000000000e+00 0.0000000000000000e+00  1.0634901936725201e+00 0.0000000000000000e+00 0.0000000000000000e+00  1.0650024413837711e+00 0.0000000000000000e+00 0.0000000000000000e+00  1.0641678090981772e+00 0.0000000000000000e+00 0.0000000000000000e+00  1.0620603242887035e+00 0.0000000000000000e+00 0.0000000000000000e+00  1.0537677064694109e+00 0.0000000000000000e+00 0.0000000000000000e+00  1.0502748148110879e+00 0.0000000000000000e+00 0.0000000000000000e+00  1.0471806279258191e+00 0.0000000000000000e+00 0.0000000000000000e+00  1.0474170929049096e+00 0.0000000000000000e+00 0.0000000000000000e+00  1.0504757437492847e+00 0.0000000000000000e+00 0.0000000000000000e+00  1.0538664608542840e+00 0.0000000000000000e+00 0.0000000000000000e+00  1.0562443762607812e+00 0.0000000000000000e+00 0.0000000000000000e+00  1.0606237023521392e+00 0.0000000000000000e+00 0.0000000000000000e+00  1.0636527409916976e+00 0.0000000000000000e+00 0.0000000000000000e+00  1.0639277493256494e+00 0.0000000000000000e+00 0.0000000000000000e+00  1.0625429990729542e+00 0.0000000000000000e+00 0.0000000000000000e+00  1.0591418474484171e+00 0.0000000000000000e+00 0.0000000000000000e+00  1.0538123453671138e+00 0.0000000000000000e+00 0.0000000000000000e+00  1.0491440922743815e+00 0.0000000000000000e+00 0.0000000000000000e+00  1.0452456975456870e+00 0.0000000000000000e+00 0.0000000000000000e+00  1.0421580129603516e+00 0.0000000000000000e+00 0.0000000000000000e+00  1.0425687088999409e+00 0.0000000000000000e+00 0.0000000000000000e+00  1.0450540983510272e+00 0.0000000000000000e+00 0.0000000000000000e+00  1.0483425886389468e+00 0.0000000000000000e+00 0.0000000000000000e+00  1.0533640804986732e+00 0.0000000000000000e+00 0.0000000000000000e+00  1.0579692905685192e+00 0.0000000000000000e+00 0.0000000000000000e+00  1.0602444684384880e+00 0.0000000000000000e+00 0.0000000000000000e+00  1.0617197233423072e+00 0.0000000000000000e+00 0.0000000000000000e+00  1.0607157931986810e+00 0.0000000000000000e+00 0.0000000000000000e+00  1.0566145657300587e+00 0.0000000000000000e+00 0.0000000000000000e+00  1.0516201954691762e+00 0.0000000000000000e+00 0.0000000000000000e+00  1.0463653399970922e+00 0.0000000000000000e+00 0.0000000000000000e+00  1.0416861282160970e+00 0.0000000000000000e+00 0.0000000000000000e+00  1.0392645204561826e+00 0.0000000000000000e+00 0.0000000000000000e+00  1.0393213059210016e+00 0.0000000000000000e+00 0.0000000000000000e+00  1.0415785378184690e+00 0.0000000000000000e+00 0.0000000000000000e+00  1.0467886022179649e+00 0.0000000000000000e+00 0.0000000000000000e+00  1.0522454532231813e+00 0.0000000000000000e+00 0.0000000000000000e+00  1.0587162904756628e+00 0.0000000000000000e+00 0.0000000000000000e+00  1.0656091320684296e+00 0.0000000000000000e+00 0.0000000000000000e+00  1.0713403716371905e+00 0.0000000000000000e+00 0.0000000000000000e+00  1.0751317785188421e+00 0.0000000000000000e+00 0.0000000000000000e+00  1.0770261430471688e+00 0.0000000000000000e+00 0.0000000000000000e+00  1.0782160669463485e+00 0.0000000000000000e+00 0.0000000000000000e+00  1.0795746376063580e+00 0.0000000000000000e+00 0.0000000000000000e+00  1.0800673856764842e+00 0.0000000000000000e+00 0.0000000000000000e+00  1.0807224827568076e+00 0.0000000000000000e+00 0.0000000000000000e+00  1.0831451253618847e+00 0.0000000000000000e+00 0.0000000000000000e+00  1.0840717226582031e+00 0.0000000000000000e+00 0.0000000000000000e+00  1.0855568990063109e+00 0.0000000000000000e+00 0.0000000000000000e+00  1.0858787070155369e+00 0.0000000000000000e+00 0.0000000000000000e+00  1.0842653432553919e+00 0.0000000000000000e+00 0.0000000000000000e+00  1.0812867613359507e+00 0.0000000000000000e+00 0.0000000000000000e+00  1.0770962349342523e+00 0.0000000000000000e+00 0.0000000000000000e+00  1.0715380611709997e+00 0.0000000000000000e+00 0.0000000000000000e+00  1.0642538936017201e+00 0.0000000000000000e+00 0.0000000000000000e+00  1.0573417475086255e+00 0.0000000000000000e+00 0.0000000000000000e+00  1.0495412385149849e+00 0.0000000000000000e+00 0.0000000000000000e+00  1.0344046910139375e+00 0.0000000000000000e+00 0.0000000000000000e+00  1.0278027954376159e+00 0.0000000000000000e+00 0.0000000000000000e+00  1.0225449254106751e+00 0.0000000000000000e+00 0.0000000000000000e+00  1.0178036283720555e+00 0.0000000000000000e+00 0.0000000000000000e+00  1.0139332157649312e+00 0.0000000000000000e+00 0.0000000000000000e+00  1.0108696043792988e+00 0.0000000000000000e+00 0.0000000000000000e+00  1.0085245189663552e+00 0.0000000000000000e+00 0.0000000000000000e+00  1.0062517586446684e+00 0.0000000000000000e+00 0.0000000000000000e+00  1.0046377913229223e+00 0.0000000000000000e+00 0.0000000000000000e+00  1.0034853264461849e+00 0.0000000000000000e+00 0.0000000000000000e+00  1.0021514955113888e+00 0.0000000000000000e+00 0.0000000000000000e+00  1.0018463740930981e+00 0.0000000000000000e+00 0.0000000000000000e+00  1.0006368011597528e+00 0.0000000000000000e+00 0.0000000000000000e+00  1.0004831054968113e+00 0.0000000000000000e+00 0.0000000000000000e+00  9.9996802515720618e-01 0.0000000000000000e+00 0.0000000000000000e+00  1.0005660249561898e+00 0.0000000000000000e+00 0.0000000000000000e+00  1.0002742975558632e+00 0.0000000000000000e+00 0.0000000000000000e+00  9.9980015834863600e-01 0.0000000000000000e+00 0.0000000000000000e+00  1.0000001322527099e+00 0.0000000000000000e+00 0.0000000000000000e+00  1.0000001322527099e+00 0.0000000000000000e+00 0.0000000000000000e+00  1.0000001322527099e+00 0.0000000000000000e+00 0.0000000000000000e+00  1.0000001322527099e+00 0.0000000000000000e+00 0.0000000000000000e+00  1.0000001322527099e+00 0.0000000000000000e+00 0.0000000000000000e+00  1.0000001322527099e+00 0.0000000000000000e+00 0.0000000000000000e+00  1.0000001322527099e+00 0.0000000000000000e+00 0.0000000000000000e+00  1.0000001322527099e+00 0.0000000000000000e+00 0.0000000000000000e+00  1.0000001322527099e+00 0.0000000000000000e+00 0.0000000000000000e+00  1.0000001322527099e+00 0.0000000000000000e+00 0.0000000000000000e+00  1.0000001322527099e+00 0.0000000000000000e+00 0.0000000000000000e+00  1.0000001322527099e+00 0.0000000000000000e+00 0.0000000000000000e+00  1.0000001322527099e+00 0.0000000000000000e+00 0.0000000000000000e+00  1.0000001322527099e+00 0.0000000000000000e+00 0.0000000000000000e+00  1.0000001322527099e+00 0.0000000000000000e+00 0.0000000000000000e+00  1.0000001322527099e+00 0.0000000000000000e+00 0.0000000000000000e+00  1.0000001322527099e+00 0.0000000000000000e+00 0.0000000000000000e+00  1.0000001322527099e+00 0.0000000000000000e+00 0.0000000000000000e+00  1.0000001322527099e+00 0.0000000000000000e+00 0.0000000000000000e+00  1.0000001322527099e+00 0.0000000000000000e+00 0.0000000000000000e+00  1.0383408683957740e+00 -9.3576053769018983e-03 0.0000000000000000e+00  1.0351300844865776e+00 -1.8857041129379699e-02 0.0000000000000000e+00  1.0325738896654189e+00 -2.8965110817361875e-02 0.0000000000000000e+00  1.0264363051905594e+00 -3.9399526870042847e-02 0.0000000000000000e+00  1.0200147615002151e+00 -5.3584296195508835e-02 0.0000000000000000e+00  1.0241916493181931e+00 -5.7047181000672895e-02 0.0000000000000000e+00  1.0279865615486652e+00 -6.0604093642330700e-02 0.0000000000000000e+00  1.0327643376062523e+00 -6.3892121113767894e-02 0.0000000000000000e+00  1.0377952186202126e+00 -6.7061327607935067e-02 0.0000000000000000e+00  1.0434240358773179e+00 -6.9850053917739574e-02 0.0000000000000000e+00  1.0496083459184269e+00 -7.2322747683493255e-02 0.0000000000000000e+00  1.0561973061067620e+00 -7.4187051334667964e-02 0.0000000000000000e+00  1.0632704826988475e+00 -7.5550147936065529e-02 0.0000000000000000e+00  1.0704271535190444e+00 -7.6096227052371374e-02 0.0000000000000000e+00  1.0778712170962284e+00 -7.6071132983321951e-02 0.0000000000000000e+00  1.0853000446150514e+00 -7.5375712219581600e-02 0.0000000000000000e+00  1.0927889424098516e+00 -7.3715468543573123e-02 0.0000000000000000e+00  1.0998913636257124e+00 -7.1252318907084819e-02 0.0000000000000000e+00  1.1066826019801554e+00 -6.8254689459589388e-02 0.0000000000000000e+00  1.1130446344043152e+00 -6.4622284815168227e-02 0.0000000000000000e+00  1.1188336310593294e+00 -6.0482471799279125e-02 0.0000000000000000e+00  1.1240389777609381e+00 -5.5927126585086154e-02 0.0000000000000000e+00  1.1287354658866362e+00 -5.1163008459994490e-02 0.0000000000000000e+00  1.1328845151028826e+00 -4.6056968409777750e-02 0.0000000000000000e+00  1.1365650682889397e+00 -4.1027788094689682e-02 0.0000000000000000e+00  1.1398187629596377e+00 -3.5668976483150643e-02 0.0000000000000000e+00  1.1426782768580148e+00 -3.0248313198724432e-02 0.0000000000000000e+00  1.1453189083258346e+00 -2.4793560381347900e-02 0.0000000000000000e+00  1.1476390103645153e+00 -1.9187083276746637e-02 0.0000000000000000e+00  1.1496773045070492e+00 -1.3337457622966063e-02 0.0000000000000000e+00  1.1513993448081010e+00 -7.1373014628281746e-03 0.0000000000000000e+00  1.1527468774940148e+00 -6.0634920179910960e-04 0.0000000000000000e+00  1.1535949284737486e+00 6.3939562067226660e-03 0.0000000000000000e+00  1.1538482564389827e+00 1.3843211042059352e-02 0.0000000000000000e+00  1.1533122906682194e+00 2.1669839452007705e-02 0.0000000000000000e+00  1.1518795451696895e+00 2.9824158017749309e-02 0.