<?xml version="1.0"?>
<VTKFile type="UnstructuredGrid"  version="0.1"  >
<UnstructuredGrid>
<Piece  NumberOfPoints="10199" NumberOfCells="20110">
<Points>
<DataArray  type="Float64"  NumberOfComponents="3"  format="ascii">0 -5 0  8 -5 0  30 -5 0  40 -5 0  40 5 0  30 5 0  8 5 0  0 5 0  8 -2.5 0  15 -2.5 0  30 -2.5 0  30 2.5 0  15 2.5 0  8 2.5 0  10 0.5 0  10 -0.5 0  0 0 0  0.4210526315780956 -5 0  0.8421052631563433 -5 0  1.263157894734281 -5 0  1.684210526311999 -5 0  2.105263157889717 -5 0  2.526315789467435 -5 0  2.947368421045153 -5 0  3.368421052622872 -5 0  3.78947368420059 -5 0  4.210526315779479 -5 0  4.631578947359537 -5 0  5.052631578939595 -5 0  5.473684210519653 -5 0  5.89473684209971 -5 0  6.315789473679768 -5 0  6.736842105259826 -5 0  7.157894736839884 -5 0  7.578947368419942 -5 0  8.407407407405314 -5 0  8.814814814810628 -5 0  9.222222222215942 -5 0  9.629629629621256 -5 0  10.03703703702657 -5 0  10.44444444443188 -5 0  10.8518518518372 -5 0  11.25925925924251 -5 0  11.66666666664783 -5 0  12.07407407405314 -5 0  12.48148148145846 -5 0  12.88888888886377 -5 0  13.29629629626908 -5 0  13.7037037036744 -5 0  14.11111111107971 -5 0  14.51851851848502 -5 0  14.92592592589034 -5 0  15.33333333329565 -5 0  15.74074074070096 -5 0  16.14814814810754 -5 0  16.55555555551614 -5 0  16.96296296292474 -5 0  17.37037037033335 -5 0  17.77777777774195 -5 0  18.18518518515056 -5 0  18.59259259255916 -5 0  18.99999999996776 -5 0  19.40740740737636 -5 0  19.81481481478497 -5 0  20.22222222219357 -5 0  20.62962962960217 -5 0  21.03703703701077 -5 0  21.44444444441937 -5 0  21.85185185182797 -5 0  22.25925925923657 -5 0  22.66666666664518 -5 0  23.07407407405378 -5 0  23.48148148146238 -5 0  23.88888888887098 -5 0  24.29629629627958 -5 0  24.70370370368818 -5 0  25.11111111109678 -5 0  25.51851851850539 -5 0  25.92592592591399 -5 0  26.33333333332259 -5 0  26.74074074073119 -5 0  27.14814814813979 -5 0  27.55555555554839 -5 0  27.96296296295699 -5 0  28.3703703703656 -5 0  28.7777777777742 -5 0  29.1851851851828 -5 0  29.5925925925914 -5 0  30.41666666667852 -5 0  30.83333333335704 -5 0  31.25000000003556 -5 0  31.66666666671408 -5 0  32.08333333338936 -5 0  32.50000000005308 -5 0  32.9166666667168 -5 0  33.33333333338052 -5 0  33.75000000004424 -5 0  34.16666666670795 -5 0  34.58333333337167 -5 0  35.00000000003539 -5 0  35.41666666669911 -5 0  35.83333333336282 -5 0  36.25000000002654 -5 0  36.66666666669026 -5 0  37.08333333335398 -5 0  37.50000000001769 -5 0  37.91666666668141 -5 0  38.33333333334513 -5 0  38.75000000000885 -5 0  39.16666666667257 -5 0  39.58333333333628 -5 0  40 -4.583333333332821 0  40 -4.166666666665642 0  40 -3.74999999999855 0  40 -3.333333333333135 0  40 -2.916666666667806 0  40 -2.500000000002478 0  40 -2.083333333337148 0  40 -1.666666666671818 0  40 -1.250000000006488 0  40 -0.8333333333405228 0  40 -0.4166666666733416 0  40 -6.163070054299169e-12 0  40 0.4166666666610173 0  40 0.8333333333281976 0  40 1.249999999995378 0  40 1.666666666662558 0  40 2.083333333329739 0  40 2.499999999996919 0  40 2.916666666664099 0  40 3.33333333333128 0  40 3.74999999999846 0  40 4.166666666665641 0  40 4.583333333332821 0  39.58333333333628 5 0  39.16666666667256 5 0  38.75000000000885 5 0  38.33333333334513 5 0  37.91666666668141 5 0  37.50000000001769 5 0  37.08333333335398 5 0  36.66666666669025 5 0  36.25000000002654 5 0  35.83333333336282 5 0  35.41666666669911 5 0  35.00000000003539 5 0  34.58333333337167 5 0  34.16666666670795 5 0  33.75000000004424 5 0  33.33333333338052 5 0  32.9166666667168 5 0  32.50000000005308 5 0  32.08333333338936 5 0  31.66666666671408 5 0  31.25000000003556 5 0  30.83333333335704 5 0  30.41666666667852 5 0  29.59259259259259 5 0  29.18518518518519 5 0  28.77777777777778 5 0  28.37037037037037 5 0  27.96296296296296 5 0  27.55555555555556 5 0  27.14814814814815 5 0  26.74074074074074 5 0  26.33333333333333 5 0  25.92592592592593 5 0  25.51851851851852 5 0  25.11111111111111 5 0  24.7037037037037 5 0  24.2962962962963 5 0  23.88888888888889 5 0  23.48148148148148 5 0  23.07407407407408 5 0  22.66666666666667 5 0  22.25925925925926 5 0  21.85185185185185 5 0  21.44444444444445 5 0  21.03703703703704 5 0  20.62962962962963 5 0  20.22222222222222 5 0  19.81481481481482 5 0  19.40740740740741 5 0  19 5 0  18.5925925925926 5 0  18.18518518518519 5 0  17.77777777777778 5 0  17.37037037037037 5 0  16.96296296296296 5 0  16.55555555555556 5 0  16.14814814814815 5 0  15.74074074074074 5 0  15.33333333333333 5 0  14.92592592592593 5 0  14.51851851851852 5 0  14.11111111111111 5 0  13.70370370370371 5 0  13.2962962962963 5 0  12.88888888888889 5 0  12.48148148148148 5 0  12.07407407407408 5 0  11.66666666666667 5 0  11.25925925925926 5 0  10.85185185185185 5 0  10.44444444444445 5 0  10.03703703703704 5 0  9.629629629629633 5 0  9.222222222222221 5 0  8.814814814814817 5 0  8.407407407407408 5 0  7.5789473684193 5 0  7.157894736838599 5 0  6.73684210526082 5 0  6.315789473684795 5 0  5.894736842108769 5 0  5.473684210532742 5 0  5.052631578956715 5 0  4.631578947380689 5 0  4.210526315804662 5 0  3.789473684226299 5 0  3.368421052645599 5 0  2.947368421064898 5 0  2.526315789484198 5 0  2.105263157903499 5 0  1.6842105263228 5 0  1.2631578947421 5 0  0.8421052631613994 5 0  0.4210526315806993 5 0  0 4.545454545454545 0  0 4.09090909090909 0  0 3.636363636363634 0  0 3.18181818181818 0  0 2.727272727272726 0  0 2.272727272727271 0  0 1.818181818181817 0  0 1.363636363636363 0  0 0.9090909090909092 0  0 0.454545454545455 0  0 -0.4545454545450807 0  0 -0.9090909090895867 0  0 -1.363636363633713 0  0 -1.818181818177841 0  0 -2.272727272723127 0  0 -2.727272727269273 0  0 -3.181818181815419 0  0 -3.636363636361564 0  0 -4.090909090907709 0  0 -4.545454545453855 0  8 -4.499999999999999 0  8 -3.999999999999999 0  8 -3.499999999999999 0  8 -3 0  8.137254901963859 -2.5 0  8.274509803926303 -2.5 0  8.411764705886863 -2.5 0  8.549019607849138 -2.5 0  8.686274509809513 -2.5 0  8.82352941176989 -2.5 0  8.960784313730265 -2.5 0  9.098039215690642 -2.5 0  9.235294117651017 -2.5 0  9.372549019611395 -2.5 0  9.50980392157177 -2.5 0  9.647058823532147 -2.5 0  9.784313725492522 -2.5 0  9.921568627452897 -2.5 0  10.05882352941327 -2.5 0  10.19607843137365 -2.5 0  10.33333333333402 -2.5 0  10.4705882352944 -2.5 0  10.60784313725478 -2.5 0  10.74509803921515 -2.5 0  10.88235294117553 -2.5 0  11.0196078431359 -2.5 0  11.15686274509628 -2.5 0  11.29411764705665 -2.5 0  11.43137254901703 -2.5 0  11.56862745097915 -2.5 0  11.70588235294301 -2.5 0  11.84313725490686 -2.5 0  11.98039215687072 -2.5 0  12.11764705883209 -2.5 0  12.25490196079247 -2.5 0  12.39215686275285 -2.5 0  12.52941176471322 -2.5 0  12.6666666666736 -2.5 0  12.80392156863397 -2.5 0  12.94117647059435 -2.5 0  13.07843137255473 -2.5 0  13.2156862745151 -2.5 0  13.35294117647548 -2.5 0  13.49019607843586 -2.5 0  13.62745098039623 -2.5 0  13.76470588235661 -2.5 0  13.90196078431699 -2.5 0  14.03921568627736 -2.5 0  14.17647058823774 -2.5 0  14.31372549019812 -2.5 0  14.45098039215849 -2.5 0  14.58823529411887 -2.5 0  14.72549019607925 -2.5 0  14.86274509803962 -2.5 0  15.20270270270254 -2.5 0  15.40540540540509 -2.5 0  15.60810810810763 -2.5 0  15.81081081081017 -2.5 0  16.01351351351227 -2.5 0  16.21621621621265 -2.5 0  16.41891891891279 -2.5 0  16.62162162161294 -2.5 0  16.82432432431308 -2.5 0  17.02702702701322 -2.5 0  17.22972972971337 -2.5 0  17.43243243241351 -2.5 0  17.63513513511365 -2.5 0  17.83783783781379 -2.5 0  18.04054054051394 -2.5 0  18.24324324321408 -2.5 0  18.44594594591422 -2.5 0  18.64864864861436 -2.5 0  18.85135135131451 -2.5 0  19.05405405401465 -2.5 0  19.25675675671479 -2.5 0  19.45945945941494 -2.5 0  19.66216216211508 -2.5 0  19.86486486481522 -2.5 0  20.06756756751536 -2.5 0  20.27027027021551 -2.5 0  20.47297297291565 -2.5 0  20.6756756756158 -2.5 0  20.87837837831594 -2.5 0  21.08108108101608 -2.5 0  21.28378378371622 -2.5 0  21.48648648641637 -2.5 0  21.68918918911651 -2.5 0  21.89189189181666 -2.5 0  22.0945945945168 -2.5 0  22.29729729721694 -2.5 0  22.49999999991778 -2.5 0  22.70270270262203 -2.5 0  22.90540540532697 -2.5 0  23.10810810803191 -2.5 0  23.31081081073686 -2.5 0  23.5135135134418 -2.5 0  23.71621621614674 -2.5 0  23.91891891885169 -2.5 0  24.12162162155663 -2.5 0  24.32432432426158 -2.5 0  24.52702702696652 -2.5 0  24.72972972967146 -2.5 0  24.93243243237641 -2.5 0  25.13513513508135 -2.5 0  25.3378378377863 -2.5 0  25.54054054049124 -2.5 0  25.74324324319618 -2.5 0  25.94594594590112 -2.5 0  26.14864864860607 -2.5 0  26.35135135131101 -2.5 0  26.55405405401596 -2.5 0  26.7567567567209 -2.5 0  26.95945945942584 -2.5 0  27.16216216213079 -2.5 0  27.36486486483573 -2.5 0  27.56756756754068 -2.5 0  27.77027027024562 -2.5 0  27.97297297295056 -2.5 0  28.1756756756555 -2.5 0  28.37837837836045 -2.5 0  28.5810810810654 -2.5 0  28.78378378377034 -2.5 0  28.98648648647528 -2.5 0  29.18918918918023 -2.5 0  29.39189189188517 -2.5 0  29.59459459459011 -2.5 0  29.79729729729506 -2.5 0  30 -3.000000000000001 0  30 -3.500000000000001 0  30 -4.000000000000001 0  30 -4.5 0  8 4.499999999999999 0  8 3.999999999999999 0  8 3.499999999999999 0  8 3 0  8.137254901963859 2.5 0  8.274509803926303 2.5 0  8.411764705886863 2.5 0  8.549019607849138 2.5 0  8.686274509809513 2.5 0  8.82352941176989 2.5 0  8.960784313730265 2.5 0  9.098039215690642 2.5 0  9.235294117651017 2.5 0  9.372549019611395 2.5 0  9.50980392157177 2.5 0  9.647058823532147 2.5 0  9.784313725492522 2.5 0  9.921568627452897 2.5 0  10.05882352941327 2.5 0  10.19607843137365 2.5 0  10.33333333333402 2.5 0  10.4705882352944 2.5 0  10.60784313725478 2.5 0  10.74509803921515 2.5 0  10.88235294117553 2.5 0  11.0196078431359 2.5 0  11.15686274509628 2.5 0  11.29411764705665 2.5 0  11.43137254901703 2.5 0  11.56862745097915 2.5 0  11.70588235294301 2.5 0  11.84313725490686 2.5 0  11.98039215687072 2.5 0  12.11764705883209 2.5 0  12.25490196079247 2.5 0  1
[...]
<PointData  Vectors="f_17"> 
<DataArray  type="Float64"  Name="f_17"  NumberOfComponents="3" format="ascii">1.0000001322259560e+00 0.0000000000000000e+00 0.0000000000000000e+00  1.0426732138098307e+00 0.0000000000000000e+00 0.0000000000000000e+00  1.0570651948503798e+00 0.0000000000000000e+00 0.0000000000000000e+00  1.0838070828511090e+00 0.0000000000000000e+00 0.0000000000000000e+00  1.0815995412050483e+00 0.0000000000000000e+00 0.0000000000000000e+00  1.0571023681996008e+00 0.0000000000000000e+00 0.0000000000000000e+00  1.0382356668630284e+00 0.0000000000000000e+00 0.0000000000000000e+00  1.0000001322259560e+00 0.0000000000000000e+00 0.0000000000000000e+00  1.0254146118698182e+00 -5.2150282816896369e-02 0.0000000000000000e+00  1.1379901674795614e+00 -4.5755283342663556e-03 0.0000000000000000e+00  1.0900336107322672e+00 -8.9714424144982013e-02 0.0000000000000000e+00  1.0449455755930614e+00 -8.0193973656640938e-02 0.0000000000000000e+00  9.9448717060558367e-01 -5.2101613640248415e-02 0.0000000000000000e+00  1.0173793755426601e+00 4.9499980607445683e-02 0.0000000000000000e+00  0.0000000000000000e+00 0.0000000000000000e+00 0.0000000000000000e+00  0.0000000000000000e+00 0.0000000000000000e+00 0.0000000000000000e+00  1.0000001322259560e+00 0.0000000000000000e+00 0.0000000000000000e+00  9.9930018251459074e-01 0.0000000000000000e+00 0.0000000000000000e+00  9.9877897903176782e-01 0.0000000000000000e+00 0.0000000000000000e+00  1.0008841266456998e+00 0.0000000000000000e+00 0.0000000000000000e+00  1.0007892788994610e+00 0.0000000000000000e+00 0.0000000000000000e+00  1.0018857855321892e+00 0.0000000000000000e+00 0.0000000000000000e+00  1.0023525658998165e+00 0.0000000000000000e+00 0.0000000000000000e+00  1.0028092457474056e+00 0.0000000000000000e+00 0.0000000000000000e+00  1.0037859309025357e+00 0.0000000000000000e+00 0.0000000000000000e+00  1.0051481056077609e+00 0.0000000000000000e+00 0.0000000000000000e+00  1.0063739798674314e+00 0.0000000000000000e+00 0.0000000000000000e+00  1.0079270703569250e+00 0.0000000000000000e+00 0.0000000000000000e+00  1.0101980922566778e+00 0.0000000000000000e+00 0.0000000000000000e+00  1.0125702233843983e+00 0.0000000000000000e+00 0.0000000000000000e+00  1.0165070830089886e+00 0.0000000000000000e+00 0.0000000000000000e+00  1.0182285490162077e+00 0.0000000000000000e+00 0.0000000000000000e+00  1.0227718125309446e+00 0.0000000000000000e+00 0.0000000000000000e+00  1.0294882354326484e+00 0.0000000000000000e+00 0.0000000000000000e+00  1.0348543058141166e+00 0.0000000000000000e+00 0.0000000000000000e+00  1.0504298176871159e+00 0.0000000000000000e+00 0.0000000000000000e+00  1.0584468603193888e+00 0.0000000000000000e+00 0.0000000000000000e+00  1.0656352932954685e+00 0.0000000000000000e+00 0.0000000000000000e+00  1.0729234553027918e+00 0.0000000000000000e+00 0.0000000000000000e+00  1.0783152254080857e+00 0.0000000000000000e+00 0.0000000000000000e+00  1.0825261051896624e+00 0.0000000000000000e+00 0.0000000000000000e+00  1.0859009400723707e+00 0.0000000000000000e+00 0.0000000000000000e+00  1.0864568546311675e+00 0.0000000000000000e+00 0.0000000000000000e+00  1.0861525772678928e+00 0.0000000000000000e+00 0.0000000000000000e+00  1.0846556178576328e+00 0.0000000000000000e+00 0.0000000000000000e+00  1.0831264629706578e+00 0.0000000000000000e+00 0.0000000000000000e+00  1.0807108936110135e+00 0.0000000000000000e+00 0.0000000000000000e+00  1.0797542631123345e+00 0.0000000000000000e+00 0.0000000000000000e+00  1.0791367231002245e+00 0.0000000000000000e+00 0.0000000000000000e+00  1.0784942996489317e+00 0.0000000000000000e+00 0.0000000000000000e+00  1.0778994263939816e+00 0.0000000000000000e+00 0.0000000000000000e+00  1.0762767738013022e+00 0.0000000000000000e+00 0.0000000000000000e+00  1.0733119119006131e+00 0.0000000000000000e+00 0.0000000000000000e+00  1.0684077891123496e+00 0.0000000000000000e+00 0.0000000000000000e+00  1.0618532975596062e+00 0.0000000000000000e+00 0.0000000000000000e+00  1.0555767211890590e+00 0.0000000000000000e+00 0.0000000000000000e+00  1.0498159221769332e+00 0.0000000000000000e+00 0.0000000000000000e+00  1.0437842899791328e+00 0.0000000000000000e+00 0.0000000000000000e+00  1.0405244590289415e+00 0.0000000000000000e+00 0.0000000000000000e+00  1.0394568148145857e+00 0.0000000000000000e+00 0.0000000000000000e+00  1.0408532767218255e+00 0.0000000000000000e+00 0.0000000000000000e+00  1.0448921608343595e+00 0.0000000000000000e+00 0.0000000000000000e+00  1.0499019227207633e+00 0.0000000000000000e+00 0.0000000000000000e+00  1.0552019756999238e+00 0.0000000000000000e+00 0.0000000000000000e+00  1.0600640029536896e+00 0.0000000000000000e+00 0.0000000000000000e+00  1.0621141099190214e+00 0.0000000000000000e+00 0.0000000000000000e+00  1.0616930638920430e+00 0.0000000000000000e+00 0.0000000000000000e+00  1.0603244268787189e+00 0.0000000000000000e+00 0.0000000000000000e+00  1.0561986554677829e+00 0.0000000000000000e+00 0.0000000000000000e+00  1.0511444978218814e+00 0.0000000000000000e+00 0.0000000000000000e+00  1.0473972902107587e+00 0.0000000000000000e+00 0.0000000000000000e+00  1.0441094164205651e+00 0.0000000000000000e+00 0.0000000000000000e+00  1.0426248658250865e+00 0.0000000000000000e+00 0.0000000000000000e+00  1.0448950306193068e+00 0.0000000000000000e+00 0.0000000000000000e+00  1.0480820096426338e+00 0.0000000000000000e+00 0.0000000000000000e+00  1.0524377933509292e+00 0.0000000000000000e+00 0.0000000000000000e+00  1.0579116223373561e+00 0.0000000000000000e+00 0.0000000000000000e+00  1.0618688050526519e+00 0.0000000000000000e+00 0.0000000000000000e+00  1.0640870086234859e+00 0.0000000000000000e+00 0.0000000000000000e+00  1.0647821464830134e+00 0.0000000000000000e+00 0.0000000000000000e+00  1.0624977609409316e+00 0.0000000000000000e+00 0.0000000000000000e+00  1.0584007026102074e+00 0.0000000000000000e+00 0.0000000000000000e+00  1.0561668169898668e+00 0.0000000000000000e+00 0.0000000000000000e+00  1.0524088301864671e+00 0.0000000000000000e+00 0.0000000000000000e+00  1.0482542444070002e+00 0.0000000000000000e+00 0.0000000000000000e+00  1.0471410628774651e+00 0.0000000000000000e+00 0.0000000000000000e+00  1.0495122809435631e+00 0.0000000000000000e+00 0.0000000000000000e+00  1.0526992684033540e+00 0.0000000000000000e+00 0.0000000000000000e+00  1.0612697013180963e+00 0.0000000000000000e+00 0.0000000000000000e+00  1.0636310281818875e+00 0.0000000000000000e+00 0.0000000000000000e+00  1.0642814203930706e+00 0.0000000000000000e+00 0.0000000000000000e+00  1.0639586451708976e+00 0.0000000000000000e+00 0.0000000000000000e+00  1.0616506675833588e+00 0.0000000000000000e+00 0.0000000000000000e+00  1.0580214778487089e+00 0.0000000000000000e+00 0.0000000000000000e+00  1.0541839318647543e+00 0.0000000000000000e+00 0.0000000000000000e+00  1.0517398922870946e+00 0.0000000000000000e+00 0.0000000000000000e+00  1.0508867749920443e+00 0.0000000000000000e+00 0.0000000000000000e+00  1.0516606850870336e+00 0.0000000000000000e+00 0.0000000000000000e+00  1.0547392342522743e+00 0.0000000000000000e+00 0.0000000000000000e+00  1.0588846770177696e+00 0.0000000000000000e+00 0.0000000000000000e+00  1.0629666420155135e+00 0.0000000000000000e+00 0.0000000000000000e+00  1.0669223377992751e+00 0.0000000000000000e+00 0.0000000000000000e+00  1.0693462990162750e+00 0.0000000000000000e+00 0.0000000000000000e+00  1.0706049996178213e+00 0.0000000000000000e+00 0.0000000000000000e+00  1.0693303129044958e+00 0.0000000000000000e+00 0.0000000000000000e+00  1.0677041929466866e+00 0.0000000000000000e+00 0.0000000000000000e+00  1.0657330045543250e+00 0.0000000000000000e+00 0.0000000000000000e+00  1.0653450576476200e+00 0.0000000000000000e+00 0.0000000000000000e+00  1.0661741282912311e+00 0.0000000000000000e+00 0.0000000000000000e+00  1.0701666232669884e+00 0.0000000000000000e+00 0.0000000000000000e+00  1.0756732166248224e+00 0.0000000000000000e+00 0.0000000000000000e+00  1.0840725635414841e+00 -8.7287172703278074e-03 0.0000000000000000e+00  1.0838383770524351e+00 -1.9096803995453354e-02 0.0000000000000000e+00  1.0826401445207152e+00 -3.2720553519135519e-02 0.0000000000000000e+00  1.0773791016112442e+00 -5.1733623813464996e-02 0.0000000000000000e+00  1.0695769835772564e+00 -8.2182486047028894e-02 0.0000000000000000e+00  1.0580439623090370e+00 -1.2615158154077796e-01 0.0000000000000000e+00  1.0327313282040342e+00 -1.8810752853449478e-01 0.0000000000000000e+00  9.7774160594745585e-01 -2.4534207435881836e-01 0.0000000000000000e+00  8.9375694232079694e-01 -2.8593234512959359e-01 0.0000000000000000e+00  8.0725581483860309e-01 -3.0094660213074109e-01 0.0000000000000000e+00  7.5034252376204147e-01 -2.9702678885697464e-01 0.0000000000000000e+00  7.4181479075514578e-01 -2.8424796818168513e-01 0.0000000000000000e+00  7.7995766960006330e-01 -2.7076090174198408e-01 0.0000000000000000e+00  8.5689572497248179e-01 -2.5344356055120615e-01 0.0000000000000000e+00  9.5098744482301423e-01 -2.2367458320466438e-01 0.0000000000000000e+00  1.0337257277735856e+00 -1.7254812744147738e-01 0.0000000000000000e+00  1.0818206571505693e+00 -1.2026456650194982e-01 0.0000000000000000e+00  1.0993032482241352e+00 -7.1860619522696179e-02 0.0000000000000000e+00  1.0973938655226145e+00 -4.0502697873908686e-02 0.0000000000000000e+00  1.0916949895952519e+00 -2.0566323835502630e-02 0.0000000000000000e+00  1.0870212572129769e+00 -1.0042347146930603e-02 0.0000000000000000e+00  1.0847849237692107e+00 -4.7295247769427971e-03 0.0000000000000000e+00  1.0827355707909030e+00 -1.9032066602598938e-03 0.0000000000000000e+00  1.0826752730531897e+00 0.0000000000000000e+00 0.0000000000000000e+00  1.0825999625592333e+00 0.0000000000000000e+00 0.0000000000000000e+00  1.0806985841036034e+00 0.0000000000000000e+00 0.0000000000000000e+00  1.0771871962423747e+00 0.0000000000000000e+00 0.0000000000000000e+00  1.0716603982828818e+00 0.0000000000000000e+00 0.0000000000000000e+00  1.0661936945445900e+00 0.0000000000000000e+00 0.0000000000000000e+00  1.0614134506282609e+00 0.0000000000000000e+00 0.0000000000000000e+00  1.0582828237414938e+00 0.0000000000000000e+00 0.0000000000000000e+00  1.0565670754152803e+00 0.0000000000000000e+00 0.0000000000000000e+00  1.0572155801760992e+00 0.0000000000000000e+00 0.0000000000000000e+00  1.0594742210581880e+00 0.0000000000000000e+00 0.0000000000000000e+00  1.0623774155058456e+00 0.0000000000000000e+00 0.0000000000000000e+00  1.0651829498019465e+00 0.0000000000000000e+00 0.0000000000000000e+00  1.0675567399621539e+00 0.0000000000000000e+00 0.0000000000000000e+00  1.0674114320112418e+00 0.0000000000000000e+00 0.0000000000000000e+00  1.0663846932712331e+00 0.0000000000000000e+00 0.0000000000000000e+00  1.0624343689370692e+00 0.0000000000000000e+00 0.0000000000000000e+00  1.0581626564428701e+00 0.0000000000000000e+00 0.0000000000000000e+00  1.0538429292986746e+00 0.0000000000000000e+00 0.0000000000000000e+00  1.0511043678212015e+00 0.0000000000000000e+00 0.0000000000000000e+00  1.0499275557184382e+00 0.0000000000000000e+00 0.0000000000000000e+00  1.0504462568083128e+00 0.0000000000000000e+00 0.0000000000000000e+00  1.0532741125972158e+00 0.0000000000000000e+00 0.0000000000000000e+00  1.0601865830141690e+00 0.0000000000000000e+00 0.0000000000000000e+00  1.0632687255820721e+00 0.0000000000000000e+00 0.0000000000000000e+00  1.0635526007895368e+00 0.0000000000000000e+00 0.0000000000000000e+00  1.0633244678072005e+00 0.0000000000000000e+00 0.0000000000000000e+00  1.0620048543943268e+00 0.0000000000000000e+00 0.0000000000000000e+00  1.0582320838007524e+00 0.0000000000000000e+00 0.0000000000000000e+00  1.0521175866956090e+00 0.0000000000000000e+00 0.0000000000000000e+00  1.0489880637956166e+00 0.0000000000000000e+00 0.0000000000000000e+00  1.0471459377564205e+00 0.0000000000000000e+00 0.0000000000000000e+00  1.0463913864144296e+00 0.0000000000000000e+00 0.0000000000000000e+00  1.0482665893276575e+00 0.0000000000000000e+00 0.0000000000000000e+00  1.0517751554900723e+00 0.0000000000000000e+00 0.0000000000000000e+00  1.0553994175409944e+00 0.0000000000000000e+00 0.0000000000000000e+00  1.0595720570549925e+00 0.0000000000000000e+00 0.0000000000000000e+00  1.0623426485165721e+00 0.0000000000000000e+00 0.0000000000000000e+00  1.0622624330181856e+00 0.0000000000000000e+00 0.0000000000000000e+00  1.0609856314465971e+00 0.0000000000000000e+00 0.0000000000000000e+00  1.0574938682702344e+00 0.0000000000000000e+00 0.0000000000000000e+00  1.0516973666987597e+00 0.0000000000000000e+00 0.0000000000000000e+00  1.0466555163672593e+00 0.0000000000000000e+00 0.0000000000000000e+00  1.0422853649538646e+00 0.0000000000000000e+00 0.0000000000000000e+00  1.0386029447535925e+00 0.0000000000000000e+00 0.0000000000000000e+00  1.0388296352279358e+00 0.0000000000000000e+00 0.0000000000000000e+00  1.0412834600256298e+00 0.0000000000000000e+00 0.0000000000000000e+00  1.0450137169210547e+00 0.0000000000000000e+00 0.0000000000000000e+00  1.0503233971406876e+00 0.0000000000000000e+00 0.0000000000000000e+00  1.0558962118599886e+00 0.0000000000000000e+00 0.0000000000000000e+00  1.0601680786227907e+00 0.0000000000000000e+00 0.0000000000000000e+00  1.0631338646391337e+00 0.0000000000000000e+00 0.0000000000000000e+00  1.0638767408809224e+00 0.0000000000000000e+00 0.0000000000000000e+00  1.0622943330954229e+00 0.0000000000000000e+00 0.0000000000000000e+00  1.0599463165862166e+00 0.0000000000000000e+00 0.0000000000000000e+00  1.0560076879865214e+00 0.0000000000000000e+00 0.0000000000000000e+00  1.0530253760430801e+00 0.0000000000000000e+00 0.0000000000000000e+00  1.0524508657208691e+00 0.0000000000000000e+00 0.0000000000000000e+00  1.0538860566070518e+00 0.0000000000000000e+00 0.0000000000000000e+00  1.0571090034126471e+00 0.0000000000000000e+00 0.0000000000000000e+00  1.0620147657971968e+00 0.0000000000000000e+00 0.0000000000000000e+00  1.0687099957477231e+00 0.0000000000000000e+00 0.0000000000000000e+00  1.0768284175298481e+00 0.0000000000000000e+00 0.0000000000000000e+00  1.0840272817154677e+00 0.0000000000000000e+00 0.0000000000000000e+00  1.0899554272440379e+00 0.0000000000000000e+00 0.0000000000000000e+00  1.0957491065011469e+00 0.0000000000000000e+00 0.0000000000000000e+00  1.0978142189682112e+00 0.0000000000000000e+00 0.0000000000000000e+00  1.0986021058085009e+00 0.0000000000000000e+00 0.0000000000000000e+00  1.0968090691528634e+00 0.0000000000000000e+00 0.0000000000000000e+00  1.0924392293891176e+00 0.0000000000000000e+00 0.0000000000000000e+00  1.0864820771525294e+00 0.0000000000000000e+00 0.0000000000000000e+00  1.0795124341738185e+00 0.0000000000000000e+00 0.0000000000000000e+00  1.0717115457348743e+00 0.0000000000000000e+00 0.0000000000000000e+00  1.0627014602554214e+00 0.0000000000000000e+00 0.0000000000000000e+00  1.0546564801700276e+00 0.0000000000000000e+00 0.0000000000000000e+00  1.0461816584262158e+00 0.0000000000000000e+00 0.0000000000000000e+00  1.0306648427272127e+00 0.0000000000000000e+00 0.0000000000000000e+00  1.0241643748827887e+00 0.0000000000000000e+00 0.0000000000000000e+00  1.0190614404611449e+00 0.0000000000000000e+00 0.0000000000000000e+00  1.0145117493780436e+00 0.0000000000000000e+00 0.0000000000000000e+00  1.0108040655844950e+00 0.0000000000000000e+00 0.0000000000000000e+00  1.0078991691070396e+00 0.0000000000000000e+00 0.0000000000000000e+00  1.0057284319914557e+00 0.0000000000000000e+00 0.0000000000000000e+00  1.0036354611611589e+00 0.0000000000000000e+00 0.0000000000000000e+00  1.0022714120780263e+00 0.0000000000000000e+00 0.0000000000000000e+00  1.0013879191027935e+00 0.0000000000000000e+00 0.0000000000000000e+00  1.0003932064841885e+00 0.0000000000000000e+00 0.0000000000000000e+00  1.0004433929771412e+00 0.0000000000000000e+00 0.0000000000000000e+00  9.9960888839979811e-01 0.0000000000000000e+00 0.0000000000000000e+00  9.9978898806859151e-01 0.0000000000000000e+00 0.0000000000000000e+00  9.9955940210592364e-01 0.0000000000000000e+00 0.0000000000000000e+00  1.0003743016677615e+00 0.0000000000000000e+00 0.0000000000000000e+00  1.0002084913296689e+00 0.0000000000000000e+00 0.0000000000000000e+00  9.9979260173405993e-01 0.0000000000000000e+00 0.0000000000000000e+00  1.0000001322259560e+00 0.0000000000000000e+00 0.0000000000000000e+00  1.0000001322259560e+00 0.0000000000000000e+00 0.0000000000000000e+00  1.0000001322259560e+00 0.0000000000000000e+00 0.0000000000000000e+00  1.0000001322259560e+00 0.0000000000000000e+00 0.0000000000000000e+00  1.0000001322259560e+00 0.0000000000000000e+00 0.0000000000000000e+00  1.0000001322259560e+00 0.0000000000000000e+00 0.0000000000000000e+00  1.0000001322259560e+00 0.0000000000000000e+00 0.0000000000000000e+00  1.0000001322259560e+00 0.0000000000000000e+00 0.0000000000000000e+00  1.0000001322259560e+00 0.0000000000000000e+00 0.0000000000000000e+00  1.0000001322259560e+00 0.0000000000000000e+00 0.0000000000000000e+00  1.0000001322259560e+00 0.0000000000000000e+00 0.0000000000000000e+00  1.0000001322259560e+00 0.0000000000000000e+00 0.0000000000000000e+00  1.0000001322259560e+00 0.0000000000000000e+00 0.0000000000000000e+00  1.0000001322259560e+00 0.0000000000000000e+00 0.0000000000000000e+00  1.0000001322259560e+00 0.0000000000000000e+00 0.0000000000000000e+00  1.0000001322259560e+00 0.0000000000000000e+00 0.0000000000000000e+00  1.0000001322259560e+00 0.0000000000000000e+00 0.0000000000000000e+00  1.0000001322259560e+00 0.0000000000000000e+00 0.0000000000000000e+00  1.0000001322259560e+00 0.0000000000000000e+00 0.0000000000000000e+00  1.0000001322259560e+00 0.0000000000000000e+00 0.0000000000000000e+00  1.0421860888208414e+00 -9.1739173335447181e-03 0.0000000000000000e+00  1.0395765100708130e+00 -1.8626297742403982e-02 0.0000000000000000e+00  1.0379569717643218e+00 -2.9099613940675850e-02 0.0000000000000000e+00  1.0330610079745424e+00 -4.0280545856816105e-02 0.0000000000000000e+00  1.0283806178306469e+00 -5.5634151218841313e-02 0.0000000000000000e+00  1.0331447062941066e+00 -5.8701076811505874e-02 0.0000000000000000e+00  1.0374910276719653e+00 -6.1777348363772522e-02 0.0000000000000000e+00  1.0428762415991704e+00 -6.4458158167785898e-02 0.0000000000000000e+00  1.0484996958807018e+00 -6.6902761409933426e-02 0.0000000000000000e+00  1.0547349872518608e+00 -6.8820958011281019e-02 0.0000000000000000e+00  1.0615145081736512e+00 -7.0279023142010344e-02 0.0000000000000000e+00  1.0686787712652743e+00 -7.0953017660969328e-02 0.0000000000000000e+00  1.0762946095871693e+00 -7.0949021098008880e-02 0.0000000000000000e+00  1.0839213455235734e+00 -6.9921573437580362e-02 0.0000000000000000e+00  1.0917622231106754e+00 -6.8119952649706314e-02 0.0000000000000000e+00  1.0994716008796657e+00 -6.5426478917127065e-02 0.0000000000000000e+00  1.1070958439466614e+00 -6.1518467257548261e-02 0.0000000000000000e+00  1.1141137059724622e+00 -5.6546204247523053e-02 0.0000000000000000e+00  1.1205687549126520e+00 -5.0792225952336061e-02 0.0000000000000000e+00  1.1262821957483846e+00 -4.4155722238392710e-02 0.0000000000000000e+00  1.1309803311282087e+00 -3.6725092007038197e-02 0.0000000000000000e+00  1.1346302253138068e+00 -2.8708009621770978e-02 0.0000000000000000e+00  1.1371038325278762e+00 -2.0316877970287969e-02 0.0000000000000000e+00  1.1383507037920102e+00 -1.1465382115500234e-02 0.0000000000000000e+00  1.1383118201482050e+00 -2.8351292252561072e-03 0.0000000000000000e+00  1.1369802813150380e+00 5.9143988440215987e-03 0.0000000000000000e+00  1.1341923699079337e+00 1.4375622060087842e-02 0.0000000000000000e+00  1.1303430768074663e+00 2.2150771451235327e-02 0.0000000000000000e+00  1.1251641251094060e+00 2.9114789209826013e-02 0.0000000000000000e+00  1.1189696565649945e+00 3.5142841017090636e-02 0.0000000000000000e+00  1.1118459168417696e+00 4.0068514358330261e-02 0.0000000000000000e+00  1.1040039408130251e+00 4.3538380598889079e-02 0.0000000000000000e+00  1.0956415927558238e+00 4.5676819439204354e-02 0.0000000000000000e+00  1.0870307873570482e+00 4.6394747896405131e-02 0.0000000000000000e+00  1.0785206474634446e+00 4.5444565781379696e-02 0.0000000000000000e+00  1.0702681028545138e+00 4.3005