<?xml version="1.0"?>
<VTKFile type="UnstructuredGrid"  version="0.1"  >
<UnstructuredGrid>
<Piece  NumberOfPoints="10199" NumberOfCells="20110">
<Points>
<DataArray  type="Float64"  NumberOfComponents="3"  format="ascii">0 -5 0  8 -5 0  30 -5 0  40 -5 0  40 5 0  30 5 0  8 5 0  0 5 0  8 -2.5 0  15 -2.5 0  30 -2.5 0  30 2.5 0  15 2.5 0  8 2.5 0  10 0.5 0  10 -0.5 0  0 0 0  0.4210526315780956 -5 0  0.8421052631563433 -5 0  1.263157894734281 -5 0  1.684210526311999 -5 0  2.105263157889717 -5 0  2.526315789467435 -5 0  2.947368421045153 -5 0  3.368421052622872 -5 0  3.78947368420059 -5 0  4.210526315779479 -5 0  4.631578947359537 -5 0  5.052631578939595 -5 0  5.473684210519653 -5 0  5.89473684209971 -5 0  6.315789473679768 -5 0  6.736842105259826 -5 0  7.157894736839884 -5 0  7.578947368419942 -5 0  8.407407407405314 -5 0  8.814814814810628 -5 0  9.222222222215942 -5 0  9.629629629621256 -5 0  10.03703703702657 -5 0  10.44444444443188 -5 0  10.8518518518372 -5 0  11.25925925924251 -5 0  11.66666666664783 -5 0  12.07407407405314 -5 0  12.48148148145846 -5 0  12.88888888886377 -5 0  13.29629629626908 -5 0  13.7037037036744 -5 0  14.11111111107971 -5 0  14.51851851848502 -5 0  14.92592592589034 -5 0  15.33333333329565 -5 0  15.74074074070096 -5 0  16.14814814810754 -5 0  16.55555555551614 -5 0  16.96296296292474 -5 0  17.37037037033335 -5 0  17.77777777774195 -5 0  18.18518518515056 -5 0  18.59259259255916 -5 0  18.99999999996776 -5 0  19.40740740737636 -5 0  19.81481481478497 -5 0  20.22222222219357 -5 0  20.62962962960217 -5 0  21.03703703701077 -5 0  21.44444444441937 -5 0  21.85185185182797 -5 0  22.25925925923657 -5 0  22.66666666664518 -5 0  23.07407407405378 -5 0  23.48148148146238 -5 0  23.88888888887098 -5 0  24.29629629627958 -5 0  24.70370370368818 -5 0  25.11111111109678 -5 0  25.51851851850539 -5 0  25.92592592591399 -5 0  26.33333333332259 -5 0  26.74074074073119 -5 0  27.14814814813979 -5 0  27.55555555554839 -5 0  27.96296296295699 -5 0  28.3703703703656 -5 0  28.7777777777742 -5 0  29.1851851851828 -5 0  29.5925925925914 -5 0  30.41666666667852 -5 0  30.83333333335704 -5 0  31.25000000003556 -5 0  31.66666666671408 -5 0  32.08333333338936 -5 0  32.50000000005308 -5 0  32.9166666667168 -5 0  33.33333333338052 -5 0  33.75000000004424 -5 0  34.16666666670795 -5 0  34.58333333337167 -5 0  35.00000000003539 -5 0  35.41666666669911 -5 0  35.83333333336282 -5 0  36.25000000002654 -5 0  36.66666666669026 -5 0  37.08333333335398 -5 0  37.50000000001769 -5 0  37.91666666668141 -5 0  38.33333333334513 -5 0  38.75000000000885 -5 0  39.16666666667257 -5 0  39.58333333333628 -5 0  40 -4.583333333332821 0  40 -4.166666666665642 0  40 -3.74999999999855 0  40 -3.333333333333135 0  40 -2.916666666667806 0  40 -2.500000000002478 0  40 -2.083333333337148 0  40 -1.666666666671818 0  40 -1.250000000006488 0  40 -0.8333333333405228 0  40 -0.4166666666733416 0  40 -6.163070054299169e-12 0  40 0.4166666666610173 0  40 0.8333333333281976 0  40 1.249999999995378 0  40 1.666666666662558 0  40 2.083333333329739 0  40 2.499999999996919 0  40 2.916666666664099 0  40 3.33333333333128 0  40 3.74999999999846 0  40 4.166666666665641 0  40 4.583333333332821 0  39.58333333333628 5 0  39.16666666667256 5 0  38.75000000000885 5 0  38.33333333334513 5 0  37.91666666668141 5 0  37.50000000001769 5 0  37.08333333335398 5 0  36.66666666669025 5 0  36.25000000002654 5 0  35.83333333336282 5 0  35.41666666669911 5 0  35.00000000003539 5 0  34.58333333337167 5 0  34.16666666670795 5 0  33.75000000004424 5 0  33.33333333338052 5 0  32.9166666667168 5 0  32.50000000005308 5 0  32.08333333338936 5 0  31.66666666671408 5 0  31.25000000003556 5 0  30.83333333335704 5 0  30.41666666667852 5 0  29.59259259259259 5 0  29.18518518518519 5 0  28.77777777777778 5 0  28.37037037037037 5 0  27.96296296296296 5 0  27.55555555555556 5 0  27.14814814814815 5 0  26.74074074074074 5 0  26.33333333333333 5 0  25.92592592592593 5 0  25.51851851851852 5 0  25.11111111111111 5 0  24.7037037037037 5 0  24.2962962962963 5 0  23.88888888888889 5 0  23.48148148148148 5 0  23.07407407407408 5 0  22.66666666666667 5 0  22.25925925925926 5 0  21.85185185185185 5 0  21.44444444444445 5 0  21.03703703703704 5 0  20.62962962962963 5 0  20.22222222222222 5 0  19.81481481481482 5 0  19.40740740740741 5 0  19 5 0  18.5925925925926 5 0  18.18518518518519 5 0  17.77777777777778 5 0  17.37037037037037 5 0  16.96296296296296 5 0  16.55555555555556 5 0  16.14814814814815 5 0  15.74074074074074 5 0  15.33333333333333 5 0  14.92592592592593 5 0  14.51851851851852 5 0  14.11111111111111 5 0  13.70370370370371 5 0  13.2962962962963 5 0  12.88888888888889 5 0  12.48148148148148 5 0  12.07407407407408 5 0  11.66666666666667 5 0  11.25925925925926 5 0  10.85185185185185 5 0  10.44444444444445 5 0  10.03703703703704 5 0  9.629629629629633 5 0  9.222222222222221 5 0  8.814814814814817 5 0  8.407407407407408 5 0  7.5789473684193 5 0  7.157894736838599 5 0  6.73684210526082 5 0  6.315789473684795 5 0  5.894736842108769 5 0  5.473684210532742 5 0  5.052631578956715 5 0  4.631578947380689 5 0  4.210526315804662 5 0  3.789473684226299 5 0  3.368421052645599 5 0  2.947368421064898 5 0  2.526315789484198 5 0  2.105263157903499 5 0  1.6842105263228 5 0  1.2631578947421 5 0  0.8421052631613994 5 0  0.4210526315806993 5 0  0 4.545454545454545 0  0 4.09090909090909 0  0 3.636363636363634 0  0 3.18181818181818 0  0 2.727272727272726 0  0 2.272727272727271 0  0 1.818181818181817 0  0 1.363636363636363 0  0 0.9090909090909092 0  0 0.454545454545455 0  0 -0.4545454545450807 0  0 -0.9090909090895867 0  0 -1.363636363633713 0  0 -1.818181818177841 0  0 -2.272727272723127 0  0 -2.727272727269273 0  0 -3.181818181815419 0  0 -3.636363636361564 0  0 -4.090909090907709 0  0 -4.545454545453855 0  8 -4.499999999999999 0  8 -3.999999999999999 0  8 -3.499999999999999 0  8 -3 0  8.137254901963859 -2.5 0  8.274509803926303 -2.5 0  8.411764705886863 -2.5 0  8.549019607849138 -2.5 0  8.686274509809513 -2.5 0  8.82352941176989 -2.5 0  8.960784313730265 -2.5 0  9.098039215690642 -2.5 0  9.235294117651017 -2.5 0  9.372549019611395 -2.5 0  9.50980392157177 -2.5 0  9.647058823532147 -2.5 0  9.784313725492522 -2.5 0  9.921568627452897 -2.5 0  10.05882352941327 -2.5 0  10.19607843137365 -2.5 0  10.33333333333402 -2.5 0  10.4705882352944 -2.5 0  10.60784313725478 -2.5 0  10.74509803921515 -2.5 0  10.88235294117553 -2.5 0  11.0196078431359 -2.5 0  11.15686274509628 -2.5 0  11.29411764705665 -2.5 0  11.43137254901703 -2.5 0  11.56862745097915 -2.5 0  11.70588235294301 -2.5 0  11.84313725490686 -2.5 0  11.98039215687072 -2.5 0  12.11764705883209 -2.5 0  12.25490196079247 -2.5 0  12.39215686275285 -2.5 0  12.52941176471322 -2.5 0  12.6666666666736 -2.5 0  12.80392156863397 -2.5 0  12.94117647059435 -2.5 0  13.07843137255473 -2.5 0  13.2156862745151 -2.5 0  13.35294117647548 -2.5 0  13.49019607843586 -2.5 0  13.62745098039623 -2.5 0  13.76470588235661 -2.5 0  13.90196078431699 -2.5 0  14.03921568627736 -2.5 0  14.17647058823774 -2.5 0  14.31372549019812 -2.5 0  14.45098039215849 -2.5 0  14.58823529411887 -2.5 0  14.72549019607925 -2.5 0  14.86274509803962 -2.5 0  15.20270270270254 -2.5 0  15.40540540540509 -2.5 0  15.60810810810763 -2.5 0  15.81081081081017 -2.5 0  16.01351351351227 -2.5 0  16.21621621621265 -2.5 0  16.41891891891279 -2.5 0  16.62162162161294 -2.5 0  16.82432432431308 -2.5 0  17.02702702701322 -2.5 0  17.22972972971337 -2.5 0  17.43243243241351 -2.5 0  17.63513513511365 -2.5 0  17.83783783781379 -2.5 0  18.04054054051394 -2.5 0  18.24324324321408 -2.5 0  18.44594594591422 -2.5 0  18.64864864861436 -2.5 0  18.85135135131451 -2.5 0  19.05405405401465 -2.5 0  19.25675675671479 -2.5 0  19.45945945941494 -2.5 0  19.66216216211508 -2.5 0  19.86486486481522 -2.5 0  20.06756756751536 -2.5 0  20.27027027021551 -2.5 0  20.47297297291565 -2.5 0  20.6756756756158 -2.5 0  20.87837837831594 -2.5 0  21.08108108101608 -2.5 0  21.28378378371622 -2.5 0  21.48648648641637 -2.5 0  21.68918918911651 -2.5 0  21.89189189181666 -2.5 0  22.0945945945168 -2.5 0  22.29729729721694 -2.5 0  22.49999999991778 -2.5 0  22.70270270262203 -2.5 0  22.90540540532697 -2.5 0  23.10810810803191 -2.5 0  23.31081081073686 -2.5 0  23.5135135134418 -2.5 0  23.71621621614674 -2.5 0  23.91891891885169 -2.5 0  24.12162162155663 -2.5 0  24.32432432426158 -2.5 0  24.52702702696652 -2.5 0  24.72972972967146 -2.5 0  24.93243243237641 -2.5 0  25.13513513508135 -2.5 0  25.3378378377863 -2.5 0  25.54054054049124 -2.5 0  25.74324324319618 -2.5 0  25.94594594590112 -2.5 0  26.14864864860607 -2.5 0  26.35135135131101 -2.5 0  26.55405405401596 -2.5 0  26.7567567567209 -2.5 0  26.95945945942584 -2.5 0  27.16216216213079 -2.5 0  27.36486486483573 -2.5 0  27.56756756754068 -2.5 0  27.77027027024562 -2.5 0  27.97297297295056 -2.5 0  28.1756756756555 -2.5 0  28.37837837836045 -2.5 0  28.5810810810654 -2.5 0  28.78378378377034 -2.5 0  28.98648648647528 -2.5 0  29.18918918918023 -2.5 0  29.39189189188517 -2.5 0  29.59459459459011 -2.5 0  29.79729729729506 -2.5 0  30 -3.000000000000001 0  30 -3.500000000000001 0  30 -4.000000000000001 0  30 -4.5 0  8 4.499999999999999 0  8 3.999999999999999 0  8 3.499999999999999 0  8 3 0  8.137254901963859 2.5 0  8.274509803926303 2.5 0  8.411764705886863 2.5 0  8.549019607849138 2.5 0  8.686274509809513 2.5 0  8.82352941176989 2.5 0  8.960784313730265 2.5 0  9.098039215690642 2.5 0  9.235294117651017 2.5 0  9.372549019611395 2.5 0  9.50980392157177 2.5 0  9.647058823532147 2.5 0  9.784313725492522 2.5 0  9.921568627452897 2.5 0  10.05882352941327 2.5 0  10.19607843137365 2.5 0  10.33333333333402 2.5 0  10.4705882352944 2.5 0  10.60784313725478 2.5 0  10.74509803921515 2.5 0  10.88235294117553 2.5 0  11.0196078431359 2.5 0  11.15686274509628 2.5 0  11.29411764705665 2.5 0  11.43137254901703 2.5 0  11.56862745097915 2.5 0  11.70588235294301 2.5 0  11.84313725490686 2.5 0  11.98039215687072 2.5 0  12.11764705883209 2.5 0  12.25490196079247 2.5 0  1
[...]
<PointData  Vectors="f_17"> 
<DataArray  type="Float64"  Name="f_17"  NumberOfComponents="3" format="ascii">1.0000001327108006e+00 0.0000000000000000e+00 0.0000000000000000e+00  1.0481439299899524e+00 0.0000000000000000e+00 0.0000000000000000e+00  1.0556498606844522e+00 0.0000000000000000e+00 0.0000000000000000e+00  1.0232481615658697e+00 0.0000000000000000e+00 0.0000000000000000e+00  1.0216421187616267e+00 0.0000000000000000e+00 0.0000000000000000e+00  1.0749083313828223e+00 0.0000000000000000e+00 0.0000000000000000e+00  1.0481640650529023e+00 0.0000000000000000e+00 0.0000000000000000e+00  1.0000001327108006e+00 0.0000000000000000e+00 0.0000000000000000e+00  1.0222740395844487e+00 -5.8822064863949843e-02 0.0000000000000000e+00  1.1546349128048752e+00 7.6845881463107085e-02 0.0000000000000000e+00  1.0388190020714914e+00 -2.0632402193530450e-02 0.0000000000000000e+00  1.0913555186004666e+00 -6.4163033438980333e-02 0.0000000000000000e+00  1.1015319607680643e+00 2.1540460024548670e-02 0.0000000000000000e+00  1.0215053963811569e+00 5.9627362388578138e-02 0.0000000000000000e+00  0.0000000000000000e+00 0.0000000000000000e+00 0.0000000000000000e+00  0.0000000000000000e+00 0.0000000000000000e+00 0.0000000000000000e+00  1.0000001327108006e+00 0.0000000000000000e+00 0.0000000000000000e+00  9.9932569438995156e-01 0.0000000000000000e+00 0.0000000000000000e+00  9.9880524233675250e-01 0.0000000000000000e+00 0.0000000000000000e+00  1.0008574367397598e+00 0.0000000000000000e+00 0.0000000000000000e+00  1.0007217789486309e+00 0.0000000000000000e+00 0.0000000000000000e+00  1.0017170245243550e+00 0.0000000000000000e+00 0.0000000000000000e+00  1.0020764256111525e+00 0.0000000000000000e+00 0.0000000000000000e+00  1.0024211792118587e+00 0.0000000000000000e+00 0.0000000000000000e+00  1.0033064220225738e+00 0.0000000000000000e+00 0.0000000000000000e+00  1.0046093020265610e+00 0.0000000000000000e+00 0.0000000000000000e+00  1.0058692236149285e+00 0.0000000000000000e+00 0.0000000000000000e+00  1.0075044789729297e+00 0.0000000000000000e+00 0.0000000000000000e+00  1.0099559516912562e+00 0.0000000000000000e+00 0.0000000000000000e+00  1.0125958431537554e+00 0.0000000000000000e+00 0.0000000000000000e+00  1.0169144754097814e+00 0.0000000000000000e+00 0.0000000000000000e+00  1.0192052216938150e+00 0.0000000000000000e+00 0.0000000000000000e+00  1.0244735460387588e+00 0.0000000000000000e+00 0.0000000000000000e+00  1.0320843506524580e+00 0.0000000000000000e+00 0.0000000000000000e+00  1.0386437441594676e+00 0.0000000000000000e+00 0.0000000000000000e+00  1.0579959326039063e+00 0.0000000000000000e+00 0.0000000000000000e+00  1.0686997235179001e+00 0.0000000000000000e+00 0.0000000000000000e+00  1.0793274598449838e+00 0.0000000000000000e+00 0.0000000000000000e+00  1.0909739685459103e+00 0.0000000000000000e+00 0.0000000000000000e+00  1.1015251911441930e+00 0.0000000000000000e+00 0.0000000000000000e+00  1.1118225550168157e+00 0.0000000000000000e+00 0.0000000000000000e+00  1.1219400340252741e+00 0.0000000000000000e+00 0.0000000000000000e+00  1.1295835747756966e+00 0.0000000000000000e+00 0.0000000000000000e+00  1.1363893756785892e+00 0.0000000000000000e+00 0.0000000000000000e+00  1.1413628792814228e+00 0.0000000000000000e+00 0.0000000000000000e+00  1.1450435480164780e+00 0.0000000000000000e+00 0.0000000000000000e+00  1.1460522300037279e+00 0.0000000000000000e+00 0.0000000000000000e+00  1.1463684307607040e+00 0.0000000000000000e+00 0.0000000000000000e+00  1.1444719862039645e+00 0.0000000000000000e+00 0.0000000000000000e+00  1.1408795204308830e+00 0.0000000000000000e+00 0.0000000000000000e+00  1.1361120999384584e+00 0.0000000000000000e+00 0.0000000000000000e+00  1.1299549336845405e+00 0.0000000000000000e+00 0.0000000000000000e+00  1.1233305813601049e+00 0.0000000000000000e+00 0.0000000000000000e+00  1.1162633269625193e+00 0.0000000000000000e+00 0.0000000000000000e+00  1.1099576376166851e+00 0.0000000000000000e+00 0.0000000000000000e+00  1.1060688795840350e+00 0.0000000000000000e+00 0.0000000000000000e+00  1.1048904289195838e+00 0.0000000000000000e+00 0.0000000000000000e+00  1.1046359329486615e+00 0.0000000000000000e+00 0.0000000000000000e+00  1.1071617185988318e+00 0.0000000000000000e+00 0.0000000000000000e+00  1.1109874331567919e+00 0.0000000000000000e+00 0.0000000000000000e+00  1.1148735429758179e+00 0.0000000000000000e+00 0.0000000000000000e+00  1.1183974548008497e+00 0.0000000000000000e+00 0.0000000000000000e+00  1.1195607397724920e+00 0.0000000000000000e+00 0.0000000000000000e+00  1.1182105506999063e+00 0.0000000000000000e+00 0.0000000000000000e+00  1.1148003967345330e+00 0.0000000000000000e+00 0.0000000000000000e+00  1.1082224255363491e+00 0.0000000000000000e+00 0.0000000000000000e+00  1.1004889993508737e+00 0.0000000000000000e+00 0.0000000000000000e+00  1.0938731086951892e+00 0.0000000000000000e+00 0.0000000000000000e+00  1.0873249810894650e+00 0.0000000000000000e+00 0.0000000000000000e+00  1.0824824621923435e+00 0.0000000000000000e+00 0.0000000000000000e+00  1.0812711292226169e+00 0.0000000000000000e+00 0.0000000000000000e+00  1.0820699337189912e+00 0.0000000000000000e+00 0.0000000000000000e+00  1.0854116414489086e+00 0.0000000000000000e+00 0.0000000000000000e+00  1.0923735886992592e+00 0.0000000000000000e+00 0.0000000000000000e+00  1.0991333344175860e+00 0.0000000000000000e+00 0.0000000000000000e+00  1.1053785178634499e+00 0.0000000000000000e+00 0.0000000000000000e+00  1.1106326531806761e+00 0.0000000000000000e+00 0.0000000000000000e+00  1.1123937002312223e+00 0.0000000000000000e+00 0.0000000000000000e+00  1.1109030917637697e+00 0.0000000000000000e+00 0.0000000000000000e+00  1.1070419981014192e+00 0.0000000000000000e+00 0.0000000000000000e+00  1.1000265297802758e+00 0.0000000000000000e+00 0.0000000000000000e+00  1.0912279174218935e+00 0.0000000000000000e+00 0.0000000000000000e+00  1.0845414320267606e+00 0.0000000000000000e+00 0.0000000000000000e+00  1.0762806421166375e+00 0.0000000000000000e+00 0.0000000000000000e+00  1.0674377570423237e+00 0.0000000000000000e+00 0.0000000000000000e+00  1.0612393235365172e+00 0.0000000000000000e+00 0.0000000000000000e+00  1.0583274749479714e+00 0.0000000000000000e+00 0.0000000000000000e+00  1.0560772888207186e+00 0.0000000000000000e+00 0.0000000000000000e+00  1.0558574418160032e+00 0.0000000000000000e+00 0.0000000000000000e+00  1.0557503395623897e+00 0.0000000000000000e+00 0.0000000000000000e+00  1.0556717047597457e+00 0.0000000000000000e+00 0.0000000000000000e+00  1.0560284157551416e+00 0.0000000000000000e+00 0.0000000000000000e+00  1.0556980608891366e+00 0.0000000000000000e+00 0.0000000000000000e+00  1.0541548902106610e+00 0.0000000000000000e+00 0.0000000000000000e+00  1.0518772972306036e+00 0.0000000000000000e+00 0.0000000000000000e+00  1.0493005025511692e+00 0.0000000000000000e+00 0.0000000000000000e+00  1.0463420975259212e+00 0.0000000000000000e+00 0.0000000000000000e+00  1.0427591188970509e+00 0.0000000000000000e+00 0.0000000000000000e+00  1.0397350085088339e+00 0.0000000000000000e+00 0.0000000000000000e+00  1.0366956678414818e+00 0.0000000000000000e+00 0.0000000000000000e+00  1.0337223538377469e+00 0.0000000000000000e+00 0.0000000000000000e+00  1.0316103556543474e+00 0.0000000000000000e+00 0.0000000000000000e+00  1.0298166110889697e+00 0.0000000000000000e+00 0.0000000000000000e+00  1.0288958806290112e+00 0.0000000000000000e+00 0.0000000000000000e+00  1.0273596208017890e+00 0.0000000000000000e+00 0.0000000000000000e+00  1.0266193153410037e+00 0.0000000000000000e+00 0.0000000000000000e+00  1.0257350296584946e+00 0.0000000000000000e+00 0.0000000000000000e+00  1.0256321599588392e+00 0.0000000000000000e+00 0.0000000000000000e+00  1.0248961996982764e+00 0.0000000000000000e+00 0.0000000000000000e+00  1.0247197586064025e+00 0.0000000000000000e+00 0.0000000000000000e+00  1.0235965118453987e+00 0.0000000000000000e+00 0.0000000000000000e+00  1.0239596355672469e+00 7.8501878632483626e-04 0.0000000000000000e+00  1.0254633447349655e+00 1.4575355833232994e-03 0.0000000000000000e+00  1.0278607741187904e+00 2.2187011517836317e-03 0.0000000000000000e+00  1.0291750365696957e+00 3.0876975177116625e-03 0.0000000000000000e+00  1.0311190641550974e+00 3.9164932324069826e-03 0.0000000000000000e+00  1.0314837410417124e+00 4.9356483456620579e-03 0.0000000000000000e+00  1.0293595601943735e+00 6.0610478202835260e-03 0.0000000000000000e+00  1.0198217577105346e+00 6.9223184877656389e-03 0.0000000000000000e+00  9.9310061656244641e-01 6.4653978233882260e-03 0.0000000000000000e+00  9.4710275685399348e-01 3.2676343794475204e-03 0.0000000000000000e+00  9.0017886793374546e-01 -3.2720288970875130e-03 0.0000000000000000e+00  8.8242412939699377e-01 -8.8506322371136072e-03 0.0000000000000000e+00  9.0732243962732972e-01 -1.1508489432202262e-02 0.0000000000000000e+00  9.5437079339738806e-01 -1.0621185522496836e-02 0.0000000000000000e+00  9.9414082231385514e-01 -8.6373496654371142e-03 0.0000000000000000e+00  1.0152658540104977e+00 -7.3812650870400251e-03 0.0000000000000000e+00  1.0223096111695247e+00 -7.1971896856294114e-03 0.0000000000000000e+00  1.0245773360944206e+00 -6.4007109270598312e-03 0.0000000000000000e+00  1.0247873351740304e+00 -5.3904827396426330e-03 0.0000000000000000e+00  1.0251171270369057e+00 -4.4082001311888377e-03 0.0000000000000000e+00  1.0241221942721643e+00 -3.3127991513906968e-03 0.0000000000000000e+00  1.0235532445041566e+00 -2.2351662212628802e-03 0.0000000000000000e+00  1.0224238863378503e+00 -1.1840344797249456e-03 0.0000000000000000e+00  1.0226218568012864e+00 0.0000000000000000e+00 0.0000000000000000e+00  1.0239035967646395e+00 0.0000000000000000e+00 0.0000000000000000e+00  1.0252835359575438e+00 0.0000000000000000e+00 0.0000000000000000e+00  1.0270550894556383e+00 0.0000000000000000e+00 0.0000000000000000e+00  1.0282502434825103e+00 0.0000000000000000e+00 0.0000000000000000e+00  1.0299366027245049e+00 0.0000000000000000e+00 0.0000000000000000e+00  1.0317110581464808e+00 0.0000000000000000e+00 0.0000000000000000e+00  1.0334550049790394e+00 0.0000000000000000e+00 0.0000000000000000e+00  1.0342884893589275e+00 0.0000000000000000e+00 0.0000000000000000e+00  1.0351926894512828e+00 0.0000000000000000e+00 0.0000000000000000e+00  1.0356863371674256e+00 0.0000000000000000e+00 0.0000000000000000e+00  1.0358528424577675e+00 0.0000000000000000e+00 0.0000000000000000e+00  1.0359507618480637e+00 0.0000000000000000e+00 0.0000000000000000e+00  1.0368272989251657e+00 0.0000000000000000e+00 0.0000000000000000e+00  1.0371340272267913e+00 0.0000000000000000e+00 0.0000000000000000e+00  1.0388811559718842e+00 0.0000000000000000e+00 0.0000000000000000e+00  1.0399854448683929e+00 0.0000000000000000e+00 0.0000000000000000e+00  1.0425292592868556e+00 0.0000000000000000e+00 0.0000000000000000e+00  1.0457512573910324e+00 0.0000000000000000e+00 0.0000000000000000e+00  1.0506231576444565e+00 0.0000000000000000e+00 0.0000000000000000e+00  1.0560773383062936e+00 0.0000000000000000e+00 0.0000000000000000e+00  1.0619400106295016e+00 0.0000000000000000e+00 0.0000000000000000e+00  1.0686155126402448e+00 0.0000000000000000e+00 0.0000000000000000e+00  1.0796502245103605e+00 0.0000000000000000e+00 0.0000000000000000e+00  1.0837801043722692e+00 0.0000000000000000e+00 0.0000000000000000e+00  1.0851605225982139e+00 0.0000000000000000e+00 0.0000000000000000e+00  1.0860630788962482e+00 0.0000000000000000e+00 0.0000000000000000e+00  1.0859371690793826e+00 0.0000000000000000e+00 0.0000000000000000e+00  1.0832853636119391e+00 0.0000000000000000e+00 0.0000000000000000e+00  1.0780628336093059e+00 0.0000000000000000e+00 0.0000000000000000e+00  1.0754971708667773e+00 0.0000000000000000e+00 0.0000000000000000e+00  1.0740432993817965e+00 0.0000000000000000e+00 0.0000000000000000e+00  1.0736639672157171e+00 0.0000000000000000e+00 0.0000000000000000e+00  1.0762063903081478e+00 0.0000000000000000e+00 0.0000000000000000e+00  1.0810971198779604e+00 0.0000000000000000e+00 0.0000000000000000e+00  1.0872513502554162e+00 0.0000000000000000e+00 0.0000000000000000e+00  1.0954597093632199e+00 0.0000000000000000e+00 0.0000000000000000e+00  1.1037597670245625e+00 0.0000000000000000e+00 0.0000000000000000e+00  1.1104794421264368e+00 0.0000000000000000e+00 0.0000000000000000e+00  1.1163603931007942e+00 0.0000000000000000e+00 0.0000000000000000e+00  1.1192502918377016e+00 0.0000000000000000e+00 0.0000000000000000e+00  1.1178814939952291e+00 0.0000000000000000e+00 0.0000000000000000e+00  1.1143408701065693e+00 0.0000000000000000e+00 0.0000000000000000e+00  1.1083803730251693e+00 0.0000000000000000e+00 0.0000000000000000e+00  1.1001214338745153e+00 0.0000000000000000e+00 0.0000000000000000e+00  1.0941858240578808e+00 0.0000000000000000e+00 0.0000000000000000e+00  1.0895143032899979e+00 0.0000000000000000e+00 0.0000000000000000e+00  1.0869463111696787e+00 0.0000000000000000e+00 0.0000000000000000e+00  1.0875929022317126e+00 0.0000000000000000e+00 0.0000000000000000e+00  1.0909904986117105e+00 0.0000000000000000e+00 0.0000000000000000e+00  1.0963845566749326e+00 0.0000000000000000e+00 0.0000000000000000e+00  1.1032696196328873e+00 0.0000000000000000e+00 0.0000000000000000e+00  1.1107736970826636e+00 0.0000000000000000e+00 0.0000000000000000e+00  1.1171866188891511e+00 0.0000000000000000e+00 0.0000000000000000e+00  1.1232602553040099e+00 0.0000000000000000e+00 0.0000000000000000e+00  1.1263531442087524e+00 0.0000000000000000e+00 0.0000000000000000e+00  1.1282286383984828e+00 0.0000000000000000e+00 0.0000000000000000e+00  1.1296843805499712e+00 0.0000000000000000e+00 0.0000000000000000e+00  1.1302996875450135e+00 0.0000000000000000e+00 0.0000000000000000e+00  1.1303038929375080e+00 0.0000000000000000e+00 0.0000000000000000e+00  1.1303711762353941e+00 0.0000000000000000e+00 0.0000000000000000e+00  1.1314187600545493e+00 0.0000000000000000e+00 0.0000000000000000e+00  1.1337863183083670e+00 0.0000000000000000e+00 0.0000000000000000e+00  1.1356892387828823e+00 0.0000000000000000e+00 0.0000000000000000e+00  1.1368380637583526e+00 0.0000000000000000e+00 0.0000000000000000e+00  1.1384820136803273e+00 0.0000000000000000e+00 0.0000000000000000e+00  1.1369385738334674e+00 0.0000000000000000e+00 0.0000000000000000e+00  1.1343331721764680e+00 0.0000000000000000e+00 0.0000000000000000e+00  1.1293271503312903e+00 0.0000000000000000e+00 0.0000000000000000e+00  1.1217451231512594e+00 0.0000000000000000e+00 0.0000000000000000e+00  1.1125904836782714e+00 0.0000000000000000e+00 0.0000000000000000e+00  1.1024300678772070e+00 0.0000000000000000e+00 0.0000000000000000e+00  1.0915786682111359e+00 0.0000000000000000e+00 0.0000000000000000e+00  1.0796099459158750e+00 0.0000000000000000e+00 0.0000000000000000e+00  1.0689698279928641e+00 0.0000000000000000e+00 0.0000000000000000e+00  1.0581334124665152e+00 0.0000000000000000e+00 0.0000000000000000e+00  1.0387391247327460e+00 0.0000000000000000e+00 0.0000000000000000e+00  1.0307440028349386e+00 0.0000000000000000e+00 0.0000000000000000e+00  1.0245022687170360e+00 0.0000000000000000e+00 0.0000000000000000e+00  1.0189342644427350e+00 0.0000000000000000e+00 0.0000000000000000e+00  1.0145043707703123e+00 0.0000000000000000e+00 0.0000000000000000e+00  1.0110061877339209e+00 0.0000000000000000e+00 0.0000000000000000e+00  1.0083261418977449e+00 0.0000000000000000e+00 0.0000000000000000e+00  1.0058136321664277e+00 0.0000000000000000e+00 0.0000000000000000e+00  1.0040826867773214e+00 0.0000000000000000e+00 0.0000000000000000e+00  1.0028687004503829e+00 0.0000000000000000e+00 0.0000000000000000e+00  1.0015518926892670e+00 0.0000000000000000e+00 0.0000000000000000e+00  1.0013162932100328e+00 0.0000000000000000e+00 0.0000000000000000e+00  1.0002228386292109e+00 0.0000000000000000e+00 0.0000000000000000e+00  1.0001772571877929e+00 0.0000000000000000e+00 0.0000000000000000e+00  9.9977712388083295e-01 0.0000000000000000e+00 0.0000000000000000e+00  1.0004576082401662e+00 0.0000000000000000e+00 0.0000000000000000e+00  1.0002344213772840e+00 0.0000000000000000e+00 0.0000000000000000e+00  9.9979260507343304e-01 0.0000000000000000e+00 0.0000000000000000e+00  1.0000001327108006e+00 0.0000000000000000e+00 0.0000000000000000e+00  1.0000001327108006e+00 0.0000000000000000e+00 0.0000000000000000e+00  1.0000001327108006e+00 0.0000000000000000e+00 0.0000000000000000e+00  1.0000001327108006e+00 0.0000000000000000e+00 0.0000000000000000e+00  1.0000001327108006e+00 0.0000000000000000e+00 0.0000000000000000e+00  1.0000001327108006e+00 0.0000000000000000e+00 0.0000000000000000e+00  1.0000001327108006e+00 0.0000000000000000e+00 0.0000000000000000e+00  1.0000001327108006e+00 0.0000000000000000e+00 0.0000000000000000e+00  1.0000001327108006e+00 0.0000000000000000e+00 0.0000000000000000e+00  1.0000001327108006e+00 0.0000000000000000e+00 0.0000000000000000e+00  1.0000001327108006e+00 0.0000000000000000e+00 0.0000000000000000e+00  1.0000001327108006e+00 0.0000000000000000e+00 0.0000000000000000e+00  1.0000001327108006e+00 0.0000000000000000e+00 0.0000000000000000e+00  1.0000001327108006e+00 0.0000000000000000e+00 0.0000000000000000e+00  1.0000001327108006e+00 0.0000000000000000e+00 0.0000000000000000e+00  1.0000001327108006e+00 0.0000000000000000e+00 0.0000000000000000e+00  1.0000001327108006e+00 0.0000000000000000e+00 0.0000000000000000e+00  1.0000001327108006e+00 0.0000000000000000e+00 0.0000000000000000e+00  1.0000001327108006e+00 0.0000000000000000e+00 0.0000000000000000e+00  1.0000001327108006e+00 0.0000000000000000e+00 0.0000000000000000e+00  1.0473030282617202e+00 -1.1417360910996033e-02 0.0000000000000000e+00  1.0435616511535186e+00 -2.2885270300145661e-02 0.0000000000000000e+00  1.0400832649713585e+00 -3.4802480120842902e-02 0.0000000000000000e+00  1.0327229961799280e+00 -4.6945195169234455e-02 0.0000000000000000e+00  1.0250481889022616e+00 -6.3181754754551719e-02 0.0000000000000000e+00  1.0296866974707959e+00 -6.7194868856257486e-02 0.0000000000000000e+00  1.0338916299011538e+00 -7.1330391439018093e-02 0.0000000000000000e+00  1.0391643910569335e+00 -7.5200651066794341e-02 0.0000000000000000e+00  1.0447096988795754e+00 -7.8970939775339921e-02 0.0000000000000000e+00  1.0509018638105763e+00 -8.2377406669902911e-02 0.0000000000000000e+00  1.0576955839529778e+00 -8.5482131506927017e-02 0.0000000000000000e+00  1.0649608957407122e+00 -8.7973347703742016e-02 0.0000000000000000e+00  1.0727532409941702e+00 -8.9991243187117001e-02 0.0000000000000000e+00  1.0806950424028041e+00 -9.1181106906770046e-02 0.0000000000000000e+00  1.0889859059908840e+00 -9.1796873793060632e-02 0.0000000000000000e+00  1.0973498828818988e+00 -9.1702639850915285e-02 0.0000000000000000e+00  1.1058120915366634e+00 -9.0623629009564360e-02 0.0000000000000000e+00  1.1139308048730949e+00 -8.8703131885103675e-02 0.0000000000000000e+00  1.1217946186980066e+00 -8.6164879109073902e-02 0.0000000000000000e+00  1.1292511130545781e+00 -8.2919936043238204e-02 0.0000000000000000e+00  1.1360741465380093e+00 -7.9024410477833554e-02 0.0000000000000000e+00  1.1423027208291341e+00 -7.4660646214766271e-02 0.0000000000000000e+00  1.1478173779815879e+00 -6.9967816344182338e-02 0.0000000000000000e+00  1.1526528680279238e+00 -6.4874788160419389e-02 0.0000000000000000e+00  1.1567676897360295e+00 -5.9882258842410128e-02 0.0000000000000000e+00  1.1601987307137975e+00 -5.4698596105801973e-02 0.0000000000000000e+00  1.1628435593463269e+00 -4.9570094489736607e-02 0.0000000000000000e+00  1.1650348234914600e+00 -4.4747592740120627e-02 0.0000000000000000e+00  1.1665640695586934e+00 -4.0243523644101033e-02 0.0000000000000000e+00  1.1676898855412501e+00 -3.6095427888595905e-02 0.0000000000000000e+00  1.1684230920527094e+00 -3.2321281224545625e-02 0.0000000000000000e+00  1.1689371718328030e+00 -2.9077066872561147e-02 0.0000000000000000e+00  1.1693026834908873e+00 -2.6205418756273014e-02 0.0000000000000000e+00  1.1696767724229964e+00 -2.3694523635204329e-02 0.0000000000000000e+00  1.1702027251617491e+00 -2.1607404195004142e-02 0.0000000000000000e+00  1.1709051523392684e+00 -1.97590