<?xml version="1.0"?>
<VTKFile type="UnstructuredGrid"  version="0.1"  >
<UnstructuredGrid>
<Piece  NumberOfPoints="10199" NumberOfCells="20110">
<Points>
<DataArray  type="Float64"  NumberOfComponents="3"  format="ascii">0 -5 0  8 -5 0  30 -5 0  40 -5 0  40 5 0  30 5 0  8 5 0  0 5 0  8 -2.5 0  15 -2.5 0  30 -2.5 0  30 2.5 0  15 2.5 0  8 2.5 0  10 0.5 0  10 -0.5 0  0 0 0  0.4210526315780956 -5 0  0.8421052631563433 -5 0  1.263157894734281 -5 0  1.684210526311999 -5 0  2.105263157889717 -5 0  2.526315789467435 -5 0  2.947368421045153 -5 0  3.368421052622872 -5 0  3.78947368420059 -5 0  4.210526315779479 -5 0  4.631578947359537 -5 0  5.052631578939595 -5 0  5.473684210519653 -5 0  5.89473684209971 -5 0  6.315789473679768 -5 0  6.736842105259826 -5 0  7.157894736839884 -5 0  7.578947368419942 -5 0  8.407407407405314 -5 0  8.814814814810628 -5 0  9.222222222215942 -5 0  9.629629629621256 -5 0  10.03703703702657 -5 0  10.44444444443188 -5 0  10.8518518518372 -5 0  11.25925925924251 -5 0  11.66666666664783 -5 0  12.07407407405314 -5 0  12.48148148145846 -5 0  12.88888888886377 -5 0  13.29629629626908 -5 0  13.7037037036744 -5 0  14.11111111107971 -5 0  14.51851851848502 -5 0  14.92592592589034 -5 0  15.33333333329565 -5 0  15.74074074070096 -5 0  16.14814814810754 -5 0  16.55555555551614 -5 0  16.96296296292474 -5 0  17.37037037033335 -5 0  17.77777777774195 -5 0  18.18518518515056 -5 0  18.59259259255916 -5 0  18.99999999996776 -5 0  19.40740740737636 -5 0  19.81481481478497 -5 0  20.22222222219357 -5 0  20.62962962960217 -5 0  21.03703703701077 -5 0  21.44444444441937 -5 0  21.85185185182797 -5 0  22.25925925923657 -5 0  22.66666666664518 -5 0  23.07407407405378 -5 0  23.48148148146238 -5 0  23.88888888887098 -5 0  24.29629629627958 -5 0  24.70370370368818 -5 0  25.11111111109678 -5 0  25.51851851850539 -5 0  25.92592592591399 -5 0  26.33333333332259 -5 0  26.74074074073119 -5 0  27.14814814813979 -5 0  27.55555555554839 -5 0  27.96296296295699 -5 0  28.3703703703656 -5 0  28.7777777777742 -5 0  29.1851851851828 -5 0  29.5925925925914 -5 0  30.41666666667852 -5 0  30.83333333335704 -5 0  31.25000000003556 -5 0  31.66666666671408 -5 0  32.08333333338936 -5 0  32.50000000005308 -5 0  32.9166666667168 -5 0  33.33333333338052 -5 0  33.75000000004424 -5 0  34.16666666670795 -5 0  34.58333333337167 -5 0  35.00000000003539 -5 0  35.41666666669911 -5 0  35.83333333336282 -5 0  36.25000000002654 -5 0  36.66666666669026 -5 0  37.08333333335398 -5 0  37.50000000001769 -5 0  37.91666666668141 -5 0  38.33333333334513 -5 0  38.75000000000885 -5 0  39.16666666667257 -5 0  39.58333333333628 -5 0  40 -4.583333333332821 0  40 -4.166666666665642 0  40 -3.74999999999855 0  40 -3.333333333333135 0  40 -2.916666666667806 0  40 -2.500000000002478 0  40 -2.083333333337148 0  40 -1.666666666671818 0  40 -1.250000000006488 0  40 -0.8333333333405228 0  40 -0.4166666666733416 0  40 -6.163070054299169e-12 0  40 0.4166666666610173 0  40 0.8333333333281976 0  40 1.249999999995378 0  40 1.666666666662558 0  40 2.083333333329739 0  40 2.499999999996919 0  40 2.916666666664099 0  40 3.33333333333128 0  40 3.74999999999846 0  40 4.166666666665641 0  40 4.583333333332821 0  39.58333333333628 5 0  39.16666666667256 5 0  38.75000000000885 5 0  38.33333333334513 5 0  37.91666666668141 5 0  37.50000000001769 5 0  37.08333333335398 5 0  36.66666666669025 5 0  36.25000000002654 5 0  35.83333333336282 5 0  35.41666666669911 5 0  35.00000000003539 5 0  34.58333333337167 5 0  34.16666666670795 5 0  33.75000000004424 5 0  33.33333333338052 5 0  32.9166666667168 5 0  32.50000000005308 5 0  32.08333333338936 5 0  31.66666666671408 5 0  31.25000000003556 5 0  30.83333333335704 5 0  30.41666666667852 5 0  29.59259259259259 5 0  29.18518518518519 5 0  28.77777777777778 5 0  28.37037037037037 5 0  27.96296296296296 5 0  27.55555555555556 5 0  27.14814814814815 5 0  26.74074074074074 5 0  26.33333333333333 5 0  25.92592592592593 5 0  25.51851851851852 5 0  25.11111111111111 5 0  24.7037037037037 5 0  24.2962962962963 5 0  23.88888888888889 5 0  23.48148148148148 5 0  23.07407407407408 5 0  22.66666666666667 5 0  22.25925925925926 5 0  21.85185185185185 5 0  21.44444444444445 5 0  21.03703703703704 5 0  20.62962962962963 5 0  20.22222222222222 5 0  19.81481481481482 5 0  19.40740740740741 5 0  19 5 0  18.5925925925926 5 0  18.18518518518519 5 0  17.77777777777778 5 0  17.37037037037037 5 0  16.96296296296296 5 0  16.55555555555556 5 0  16.14814814814815 5 0  15.74074074074074 5 0  15.33333333333333 5 0  14.92592592592593 5 0  14.51851851851852 5 0  14.11111111111111 5 0  13.70370370370371 5 0  13.2962962962963 5 0  12.88888888888889 5 0  12.48148148148148 5 0  12.07407407407408 5 0  11.66666666666667 5 0  11.25925925925926 5 0  10.85185185185185 5 0  10.44444444444445 5 0  10.03703703703704 5 0  9.629629629629633 5 0  9.222222222222221 5 0  8.814814814814817 5 0  8.407407407407408 5 0  7.5789473684193 5 0  7.157894736838599 5 0  6.73684210526082 5 0  6.315789473684795 5 0  5.894736842108769 5 0  5.473684210532742 5 0  5.052631578956715 5 0  4.631578947380689 5 0  4.210526315804662 5 0  3.789473684226299 5 0  3.368421052645599 5 0  2.947368421064898 5 0  2.526315789484198 5 0  2.105263157903499 5 0  1.6842105263228 5 0  1.2631578947421 5 0  0.8421052631613994 5 0  0.4210526315806993 5 0  0 4.545454545454545 0  0 4.09090909090909 0  0 3.636363636363634 0  0 3.18181818181818 0  0 2.727272727272726 0  0 2.272727272727271 0  0 1.818181818181817 0  0 1.363636363636363 0  0 0.9090909090909092 0  0 0.454545454545455 0  0 -0.4545454545450807 0  0 -0.9090909090895867 0  0 -1.363636363633713 0  0 -1.818181818177841 0  0 -2.272727272723127 0  0 -2.727272727269273 0  0 -3.181818181815419 0  0 -3.636363636361564 0  0 -4.090909090907709 0  0 -4.545454545453855 0  8 -4.499999999999999 0  8 -3.999999999999999 0  8 -3.499999999999999 0  8 -3 0  8.137254901963859 -2.5 0  8.274509803926303 -2.5 0  8.411764705886863 -2.5 0  8.549019607849138 -2.5 0  8.686274509809513 -2.5 0  8.82352941176989 -2.5 0  8.960784313730265 -2.5 0  9.098039215690642 -2.5 0  9.235294117651017 -2.5 0  9.372549019611395 -2.5 0  9.50980392157177 -2.5 0  9.647058823532147 -2.5 0  9.784313725492522 -2.5 0  9.921568627452897 -2.5 0  10.05882352941327 -2.5 0  10.19607843137365 -2.5 0  10.33333333333402 -2.5 0  10.4705882352944 -2.5 0  10.60784313725478 -2.5 0  10.74509803921515 -2.5 0  10.88235294117553 -2.5 0  11.0196078431359 -2.5 0  11.15686274509628 -2.5 0  11.29411764705665 -2.5 0  11.43137254901703 -2.5 0  11.56862745097915 -2.5 0  11.70588235294301 -2.5 0  11.84313725490686 -2.5 0  11.98039215687072 -2.5 0  12.11764705883209 -2.5 0  12.25490196079247 -2.5 0  12.39215686275285 -2.5 0  12.52941176471322 -2.5 0  12.6666666666736 -2.5 0  12.80392156863397 -2.5 0  12.94117647059435 -2.5 0  13.07843137255473 -2.5 0  13.2156862745151 -2.5 0  13.35294117647548 -2.5 0  13.49019607843586 -2.5 0  13.62745098039623 -2.5 0  13.76470588235661 -2.5 0  13.90196078431699 -2.5 0  14.03921568627736 -2.5 0  14.17647058823774 -2.5 0  14.31372549019812 -2.5 0  14.45098039215849 -2.5 0  14.58823529411887 -2.5 0  14.72549019607925 -2.5 0  14.86274509803962 -2.5 0  15.20270270270254 -2.5 0  15.40540540540509 -2.5 0  15.60810810810763 -2.5 0  15.81081081081017 -2.5 0  16.01351351351227 -2.5 0  16.21621621621265 -2.5 0  16.41891891891279 -2.5 0  16.62162162161294 -2.5 0  16.82432432431308 -2.5 0  17.02702702701322 -2.5 0  17.22972972971337 -2.5 0  17.43243243241351 -2.5 0  17.63513513511365 -2.5 0  17.83783783781379 -2.5 0  18.04054054051394 -2.5 0  18.24324324321408 -2.5 0  18.44594594591422 -2.5 0  18.64864864861436 -2.5 0  18.85135135131451 -2.5 0  19.05405405401465 -2.5 0  19.25675675671479 -2.5 0  19.45945945941494 -2.5 0  19.66216216211508 -2.5 0  19.86486486481522 -2.5 0  20.06756756751536 -2.5 0  20.27027027021551 -2.5 0  20.47297297291565 -2.5 0  20.6756756756158 -2.5 0  20.87837837831594 -2.5 0  21.08108108101608 -2.5 0  21.28378378371622 -2.5 0  21.48648648641637 -2.5 0  21.68918918911651 -2.5 0  21.89189189181666 -2.5 0  22.0945945945168 -2.5 0  22.29729729721694 -2.5 0  22.49999999991778 -2.5 0  22.70270270262203 -2.5 0  22.90540540532697 -2.5 0  23.10810810803191 -2.5 0  23.31081081073686 -2.5 0  23.5135135134418 -2.5 0  23.71621621614674 -2.5 0  23.91891891885169 -2.5 0  24.12162162155663 -2.5 0  24.32432432426158 -2.5 0  24.52702702696652 -2.5 0  24.72972972967146 -2.5 0  24.93243243237641 -2.5 0  25.13513513508135 -2.5 0  25.3378378377863 -2.5 0  25.54054054049124 -2.5 0  25.74324324319618 -2.5 0  25.94594594590112 -2.5 0  26.14864864860607 -2.5 0  26.35135135131101 -2.5 0  26.55405405401596 -2.5 0  26.7567567567209 -2.5 0  26.95945945942584 -2.5 0  27.16216216213079 -2.5 0  27.36486486483573 -2.5 0  27.56756756754068 -2.5 0  27.77027027024562 -2.5 0  27.97297297295056 -2.5 0  28.1756756756555 -2.5 0  28.37837837836045 -2.5 0  28.5810810810654 -2.5 0  28.78378378377034 -2.5 0  28.98648648647528 -2.5 0  29.18918918918023 -2.5 0  29.39189189188517 -2.5 0  29.59459459459011 -2.5 0  29.79729729729506 -2.5 0  30 -3.000000000000001 0  30 -3.500000000000001 0  30 -4.000000000000001 0  30 -4.5 0  8 4.499999999999999 0  8 3.999999999999999 0  8 3.499999999999999 0  8 3 0  8.137254901963859 2.5 0  8.274509803926303 2.5 0  8.411764705886863 2.5 0  8.549019607849138 2.5 0  8.686274509809513 2.5 0  8.82352941176989 2.5 0  8.960784313730265 2.5 0  9.098039215690642 2.5 0  9.235294117651017 2.5 0  9.372549019611395 2.5 0  9.50980392157177 2.5 0  9.647058823532147 2.5 0  9.784313725492522 2.5 0  9.921568627452897 2.5 0  10.05882352941327 2.5 0  10.19607843137365 2.5 0  10.33333333333402 2.5 0  10.4705882352944 2.5 0  10.60784313725478 2.5 0  10.74509803921515 2.5 0  10.88235294117553 2.5 0  11.0196078431359 2.5 0  11.15686274509628 2.5 0  11.29411764705665 2.5 0  11.43137254901703 2.5 0  11.56862745097915 2.5 0  11.70588235294301 2.5 0  11.84313725490686 2.5 0  11.98039215687072 2.5 0  12.11764705883209 2.5 0  12.25490196079247 2.5 0  1
[...]
<PointData  Vectors="f_17"> 
<DataArray  type="Float64"  Name="f_17"  NumberOfComponents="3" format="ascii">1.0000001312579494e+00 0.0000000000000000e+00 0.0000000000000000e+00  1.0396678477998191e+00 0.0000000000000000e+00 0.0000000000000000e+00  1.0650986236378681e+00 0.0000000000000000e+00 0.0000000000000000e+00  1.0936621644730014e+00 0.0000000000000000e+00 0.0000000000000000e+00  1.0754943335621769e+00 0.0000000000000000e+00 0.0000000000000000e+00  1.0500523221673883e+00 0.0000000000000000e+00 0.0000000000000000e+00  1.0411874469845548e+00 0.0000000000000000e+00 0.0000000000000000e+00  1.0000001312579494e+00 0.0000000000000000e+00 0.0000000000000000e+00  1.0216058214389649e+00 -4.9316782914157795e-02 0.0000000000000000e+00  1.0553238324972756e+00 9.1123848787808243e-02 0.0000000000000000e+00  1.1286064589446105e+00 4.1299263181841843e-02 0.0000000000000000e+00  9.9680409011170790e-01 3.7540018606222837e-02 0.0000000000000000e+00  1.0543449244981165e+00 6.1815138225441872e-02 0.0000000000000000e+00  1.0211976861547405e+00 5.2279882889135182e-02 0.0000000000000000e+00  0.0000000000000000e+00 0.0000000000000000e+00 0.0000000000000000e+00  0.0000000000000000e+00 0.0000000000000000e+00 0.0000000000000000e+00  1.0000001312579494e+00 0.0000000000000000e+00 0.0000000000000000e+00  9.9930698009890773e-01 0.0000000000000000e+00 0.0000000000000000e+00  9.9880205470482319e-01 0.0000000000000000e+00 0.0000000000000000e+00  1.0009032567161855e+00 0.0000000000000000e+00 0.0000000000000000e+00  1.0007520484527843e+00 0.0000000000000000e+00 0.0000000000000000e+00  1.0017274756411283e+00 0.0000000000000000e+00 0.0000000000000000e+00  1.0020136369344805e+00 0.0000000000000000e+00 0.0000000000000000e+00  1.0022251874252543e+00 0.0000000000000000e+00 0.0000000000000000e+00  1.0029257662634201e+00 0.0000000000000000e+00 0.0000000000000000e+00  1.0040091950263947e+00 0.0000000000000000e+00 0.0000000000000000e+00  1.0049738999505327e+00 0.0000000000000000e+00 0.0000000000000000e+00  1.0063005602244197e+00 0.0000000000000000e+00 0.0000000000000000e+00  1.0083815935097680e+00 0.0000000000000000e+00 0.0000000000000000e+00  1.0105972553616860e+00 0.0000000000000000e+00 0.0000000000000000e+00  1.0144080237620827e+00 0.0000000000000000e+00 0.0000000000000000e+00  1.0159870199603251e+00 0.0000000000000000e+00 0.0000000000000000e+00  1.0203752783454385e+00 0.0000000000000000e+00 0.0000000000000000e+00  1.0269083224936564e+00 0.0000000000000000e+00 0.0000000000000000e+00  1.0320745173999721e+00 0.0000000000000000e+00 0.0000000000000000e+00  1.0472668792293294e+00 0.0000000000000000e+00 0.0000000000000000e+00  1.0552749548014579e+00 0.0000000000000000e+00 0.0000000000000000e+00  1.0626915745791548e+00 0.0000000000000000e+00 0.0000000000000000e+00  1.0705572457154504e+00 0.0000000000000000e+00 0.0000000000000000e+00  1.0770404222083068e+00 0.0000000000000000e+00 0.0000000000000000e+00  1.0829416138041352e+00 0.0000000000000000e+00 0.0000000000000000e+00  1.0886032460401780e+00 0.0000000000000000e+00 0.0000000000000000e+00  1.0919222212377018e+00 0.0000000000000000e+00 0.0000000000000000e+00  1.0945734617008196e+00 0.0000000000000000e+00 0.0000000000000000e+00  1.0956676939632339e+00 0.0000000000000000e+00 0.0000000000000000e+00  1.0957880650183478e+00 0.0000000000000000e+00 0.0000000000000000e+00  1.0933944466549153e+00 0.0000000000000000e+00 0.0000000000000000e+00  1.0904307613656863e+00 0.0000000000000000e+00 0.0000000000000000e+00  1.0856375475699971e+00 0.0000000000000000e+00 0.0000000000000000e+00  1.0792751853935230e+00 0.0000000000000000e+00 0.0000000000000000e+00  1.0722831563064090e+00 0.0000000000000000e+00 0.0000000000000000e+00  1.0647799642926496e+00 0.0000000000000000e+00 0.0000000000000000e+00  1.0577854220511083e+00 0.0000000000000000e+00 0.0000000000000000e+00  1.0516175346684740e+00 0.0000000000000000e+00 0.0000000000000000e+00  1.0471006485945571e+00 0.0000000000000000e+00 0.0000000000000000e+00  1.0459317268658055e+00 0.0000000000000000e+00 0.0000000000000000e+00  1.0475149817829439e+00 0.0000000000000000e+00 0.0000000000000000e+00  1.0498488586677561e+00 0.0000000000000000e+00 0.0000000000000000e+00  1.0541829349733944e+00 0.0000000000000000e+00 0.0000000000000000e+00  1.0585014737247160e+00 0.0000000000000000e+00 0.0000000000000000e+00  1.0616689401558563e+00 0.0000000000000000e+00 0.0000000000000000e+00  1.0634171489290862e+00 0.0000000000000000e+00 0.0000000000000000e+00  1.0623401839487958e+00 0.0000000000000000e+00 0.0000000000000000e+00  1.0591958974181637e+00 0.0000000000000000e+00 0.0000000000000000e+00  1.0548571565333742e+00 0.0000000000000000e+00 0.0000000000000000e+00  1.0492557687605704e+00 0.0000000000000000e+00 0.0000000000000000e+00  1.0441143063611875e+00 0.0000000000000000e+00 0.0000000000000000e+00  1.0419981917273844e+00 0.0000000000000000e+00 0.0000000000000000e+00  1.0409689499723940e+00 0.0000000000000000e+00 0.0000000000000000e+00  1.0420644075793830e+00 0.0000000000000000e+00 0.0000000000000000e+00  1.0462924400580722e+00 0.0000000000000000e+00 0.0000000000000000e+00  1.0508802629426308e+00 0.0000000000000000e+00 0.0000000000000000e+00  1.0555650897565940e+00 0.0000000000000000e+00 0.0000000000000000e+00  1.0609229580427493e+00 0.0000000000000000e+00 0.0000000000000000e+00  1.0635805155575253e+00 0.0000000000000000e+00 0.0000000000000000e+00  1.0637705182016701e+00 0.0000000000000000e+00 0.0000000000000000e+00  1.0625120665235890e+00 0.0000000000000000e+00 0.0000000000000000e+00  1.0589331880536739e+00 0.0000000000000000e+00 0.0000000000000000e+00  1.0546699668294479e+00 0.0000000000000000e+00 0.0000000000000000e+00  1.0514146532267650e+00 0.0000000000000000e+00 0.0000000000000000e+00  1.0485232270878579e+00 0.0000000000000000e+00 0.0000000000000000e+00  1.0472447968571770e+00 0.0000000000000000e+00 0.0000000000000000e+00  1.0504681057406928e+00 0.0000000000000000e+00 0.0000000000000000e+00  1.0532989061482614e+00 0.0000000000000000e+00 0.0000000000000000e+00  1.0555621298896416e+00 0.0000000000000000e+00 0.0000000000000000e+00  1.0590305907497783e+00 0.0000000000000000e+00 0.0000000000000000e+00  1.0631932749531332e+00 0.0000000000000000e+00 0.0000000000000000e+00  1.0649298080638427e+00 0.0000000000000000e+00 0.0000000000000000e+00  1.0630580540012160e+00 0.0000000000000000e+00 0.0000000000000000e+00  1.0590282941607734e+00 0.0000000000000000e+00 0.0000000000000000e+00  1.0546504235384233e+00 0.0000000000000000e+00 0.0000000000000000e+00  1.0519645489319442e+00 0.0000000000000000e+00 0.0000000000000000e+00  1.0508966592696316e+00 0.0000000000000000e+00 0.0000000000000000e+00  1.0513264320969977e+00 0.0000000000000000e+00 0.0000000000000000e+00  1.0537929737027674e+00 0.0000000000000000e+00 0.0000000000000000e+00  1.0577429106914935e+00 0.0000000000000000e+00 0.0000000000000000e+00  1.0622381835589141e+00 0.0000000000000000e+00 0.0000000000000000e+00  1.0656434108308468e+00 0.0000000000000000e+00 0.0000000000000000e+00  1.0683292708956444e+00 0.0000000000000000e+00 0.0000000000000000e+00  1.0689131982390290e+00 0.0000000000000000e+00 0.0000000000000000e+00  1.0675945103287559e+00 0.0000000000000000e+00 0.0000000000000000e+00  1.0655365976892990e+00 0.0000000000000000e+00 0.0000000000000000e+00  1.0629292255463385e+00 0.0000000000000000e+00 0.0000000000000000e+00  1.0612991753164629e+00 0.0000000000000000e+00 0.0000000000000000e+00  1.0603125183736981e+00 0.0000000000000000e+00 0.0000000000000000e+00  1.0618842407876483e+00 0.0000000000000000e+00 0.0000000000000000e+00  1.0654243940957024e+00 0.0000000000000000e+00 0.0000000000000000e+00  1.0714113765151076e+00 0.0000000000000000e+00 0.0000000000000000e+00  1.0778282185906198e+00 0.0000000000000000e+00 0.0000000000000000e+00  1.0848452746436428e+00 0.0000000000000000e+00 0.0000000000000000e+00  1.0897630270853009e+00 0.0000000000000000e+00 0.0000000000000000e+00  1.0955073679474741e+00 -2.4784495651652286e-03 0.0000000000000000e+00  1.1006889446867996e+00 -5.0241658497953935e-03 0.0000000000000000e+00  1.1110478645558950e+00 -7.6022499754066037e-03 0.0000000000000000e+00  1.1289180047324121e+00 -1.0110956689626822e-02 0.0000000000000000e+00  1.1586468405546710e+00 -1.0705758765978415e-02 0.0000000000000000e+00  1.1858057994190079e+00 -9.5408800759620958e-03 0.0000000000000000e+00  1.1834775138803757e+00 3.3099470660409077e-03 0.0000000000000000e+00  1.1255174746883456e+00 2.4427892252062971e-02 0.0000000000000000e+00  1.0074212310609540e+00 5.7816453546588271e-02 0.0000000000000000e+00  8.6366694551060907e-01 9.3353210790111052e-02 0.0000000000000000e+00  7.5120301032149850e-01 1.2172211914841410e-01 0.0000000000000000e+00  7.0280644482006349e-01 1.3263598885327801e-01 0.0000000000000000e+00  7.1997310714167950e-01 1.2665861268560175e-01 0.0000000000000000e+00  7.7514361006353016e-01 1.1671952481893279e-01 0.0000000000000000e+00  8.4496394154951970e-01 9.2133134626933663e-02 0.0000000000000000e+00  9.0698355876779646e-01 6.2843391543323260e-02 0.0000000000000000e+00  9.5804944389380475e-01 3.9913591849767754e-02 0.0000000000000000e+00  1.0014316314876694e+00 2.6532749522316268e-02 0.0000000000000000e+00  1.0332163208337335e+00 2.1500620210646984e-02 0.0000000000000000e+00  1.0544734966792422e+00 1.6286755601374762e-02 0.0000000000000000e+00  1.0661549525781899e+00 1.1938904025194350e-02 0.0000000000000000e+00  1.0727496574879398e+00 7.7940500442119304e-03 0.0000000000000000e+00  1.0752225687603956e+00 3.7777220897606666e-03 0.0000000000000000e+00  1.0726373353700549e+00 0.0000000000000000e+00 0.0000000000000000e+00  1.0718757687276532e+00 0.0000000000000000e+00 0.0000000000000000e+00  1.0725166151018635e+00 0.0000000000000000e+00 0.0000000000000000e+00  1.0741354012633821e+00 0.0000000000000000e+00 0.0000000000000000e+00  1.0748333387240661e+00 0.0000000000000000e+00 0.0000000000000000e+00  1.0748693042203690e+00 0.0000000000000000e+00 0.0000000000000000e+00  1.0735835529139890e+00 0.0000000000000000e+00 0.0000000000000000e+00  1.0706816155944461e+00 0.0000000000000000e+00 0.0000000000000000e+00  1.0659188528159529e+00 0.0000000000000000e+00 0.0000000000000000e+00  1.0610514821791166e+00 0.0000000000000000e+00 0.0000000000000000e+00  1.0568054580627737e+00 0.0000000000000000e+00 0.0000000000000000e+00  1.0538458207675756e+00 0.0000000000000000e+00 0.0000000000000000e+00  1.0530644461165439e+00 0.0000000000000000e+00 0.0000000000000000e+00  1.0549269549986349e+00 0.0000000000000000e+00 0.0000000000000000e+00  1.0576414301038941e+00 0.0000000000000000e+00 0.0000000000000000e+00  1.0618086242087359e+00 0.0000000000000000e+00 0.0000000000000000e+00  1.0643423843268720e+00 0.0000000000000000e+00 0.0000000000000000e+00  1.0660743651760283e+00 0.0000000000000000e+00 0.0000000000000000e+00  1.0656751085456484e+00 0.0000000000000000e+00 0.0000000000000000e+00  1.0639666673241788e+00 0.0000000000000000e+00 0.0000000000000000e+00  1.0606462078817938e+00 0.0000000000000000e+00 0.0000000000000000e+00  1.0561068353752936e+00 0.0000000000000000e+00 0.0000000000000000e+00  1.0526199752422229e+00 0.0000000000000000e+00 0.0000000000000000e+00  1.0486080631039851e+00 0.0000000000000000e+00 0.0000000000000000e+00  1.0498739757240163e+00 0.0000000000000000e+00 0.0000000000000000e+00  1.0517095914340671e+00 0.0000000000000000e+00 0.0000000000000000e+00  1.0561047503450021e+00 0.0000000000000000e+00 0.0000000000000000e+00  1.0614645457298115e+00 0.0000000000000000e+00 0.0000000000000000e+00  1.0645107715562718e+00 0.0000000000000000e+00 0.0000000000000000e+00  1.0639454491620799e+00 0.0000000000000000e+00 0.0000000000000000e+00  1.0634745708911157e+00 0.0000000000000000e+00 0.0000000000000000e+00  1.0608028614752985e+00 0.0000000000000000e+00 0.0000000000000000e+00  1.0559828517555496e+00 0.0000000000000000e+00 0.0000000000000000e+00  1.0514956996034959e+00 0.0000000000000000e+00 0.0000000000000000e+00  1.0476703304511732e+00 0.0000000000000000e+00 0.0000000000000000e+00  1.0446765798636444e+00 0.0000000000000000e+00 0.0000000000000000e+00  1.0445191489973025e+00 0.0000000000000000e+00 0.0000000000000000e+00  1.0464238347674677e+00 0.0000000000000000e+00 0.0000000000000000e+00  1.0490801951579076e+00 0.0000000000000000e+00 0.0000000000000000e+00  1.0539156589583625e+00 0.0000000000000000e+00 0.0000000000000000e+00  1.0584588846006648e+00 0.0000000000000000e+00 0.0000000000000000e+00  1.0609542377250718e+00 0.0000000000000000e+00 0.0000000000000000e+00  1.0622106726565070e+00 0.0000000000000000e+00 0.0000000000000000e+00  1.0608647544322416e+00 0.0000000000000000e+00 0.0000000000000000e+00  1.0562014488440394e+00 0.0000000000000000e+00 0.0000000000000000e+00  1.0515614993793891e+00 0.0000000000000000e+00 0.0000000000000000e+00  1.0464397468973110e+00 0.0000000000000000e+00 0.0000000000000000e+00  1.0412813159289598e+00 0.0000000000000000e+00 0.0000000000000000e+00  1.0384370753541650e+00 0.0000000000000000e+00 0.0000000000000000e+00  1.0379564211684591e+00 0.0000000000000000e+00 0.0000000000000000e+00  1.0396758952130956e+00 0.0000000000000000e+00 0.0000000000000000e+00  1.0439292477953908e+00 0.0000000000000000e+00 0.0000000000000000e+00  1.0497187123579783e+00 0.0000000000000000e+00 0.0000000000000000e+00  1.0556954005577510e+00 0.0000000000000000e+00 0.0000000000000000e+00  1.0619903878721870e+00 0.0000000000000000e+00 0.0000000000000000e+00  1.0658055265943569e+00 0.0000000000000000e+00 0.0000000000000000e+00  1.0681985551735329e+00 0.0000000000000000e+00 0.0000000000000000e+00  1.0696569873439599e+00 0.0000000000000000e+00 0.0000000000000000e+00  1.0695871911556603e+00 0.0000000000000000e+00 0.0000000000000000e+00  1.0684905875880981e+00 0.0000000000000000e+00 0.0000000000000000e+00  1.0673226636368205e+00 0.0000000000000000e+00 0.0000000000000000e+00  1.0676142626113627e+00 0.0000000000000000e+00 0.0000000000000000e+00  1.0701389603321394e+00 0.0000000000000000e+00 0.0000000000000000e+00  1.0733436776158138e+00 0.0000000000000000e+00 0.0000000000000000e+00  1.0773821151781753e+00 0.0000000000000000e+00 0.0000000000000000e+00  1.0832130016103754e+00 0.0000000000000000e+00 0.0000000000000000e+00  1.0868766296950778e+00 0.0000000000000000e+00 0.0000000000000000e+00  1.0901653003762313e+00 0.0000000000000000e+00 0.0000000000000000e+00  1.0912453628918963e+00 0.0000000000000000e+00 0.0000000000000000e+00  1.0895872126456132e+00 0.0000000000000000e+00 0.0000000000000000e+00  1.0858953314103168e+00 0.0000000000000000e+00 0.0000000000000000e+00  1.0806278471547361e+00 0.0000000000000000e+00 0.0000000000000000e+00  1.0739313085473576e+00 0.0000000000000000e+00 0.0000000000000000e+00  1.0655272408468901e+00 0.0000000000000000e+00 0.0000000000000000e+00  1.0577353917581551e+00 0.0000000000000000e+00 0.0000000000000000e+00  1.0492659672301452e+00 0.0000000000000000e+00 0.0000000000000000e+00  1.0334042887163428e+00 0.0000000000000000e+00 0.0000000000000000e+00  1.0267061983811656e+00 0.0000000000000000e+00 0.0000000000000000e+00  1.0214318568317804e+00 0.0000000000000000e+00 0.0000000000000000e+00  1.0167378373797895e+00 0.0000000000000000e+00 0.0000000000000000e+00  1.0128942015937650e+00 0.0000000000000000e+00 0.0000000000000000e+00  1.0098632527513611e+00 0.0000000000000000e+00 0.0000000000000000e+00  1.0075378871310454e+00 0.0000000000000000e+00 0.0000000000000000e+00  1.0052624598823501e+00 0.0000000000000000e+00 0.0000000000000000e+00  1.0036647132204621e+00 0.0000000000000000e+00 0.0000000000000000e+00  1.0025169025954286e+00 0.0000000000000000e+00 0.0000000000000000e+00  1.0012435584873791e+00 0.0000000000000000e+00 0.0000000000000000e+00  1.0010262152866787e+00 0.0000000000000000e+00 0.0000000000000000e+00  9.9994582079104066e-01 0.0000000000000000e+00 0.0000000000000000e+00  9.9993840953267010e-01 0.0000000000000000e+00 0.0000000000000000e+00  9.9960207891477382e-01 0.0000000000000000e+00 0.0000000000000000e+00  1.0003461221831247e+00 0.0000000000000000e+00 0.0000000000000000e+00  1.0001798242922852e+00 0.0000000000000000e+00 0.0000000000000000e+00  9.9978695121538441e-01 0.0000000000000000e+00 0.0000000000000000e+00  1.0000001312579494e+00 0.0000000000000000e+00 0.0000000000000000e+00  1.0000001312579494e+00 0.0000000000000000e+00 0.0000000000000000e+00  1.0000001312579494e+00 0.0000000000000000e+00 0.0000000000000000e+00  1.0000001312579494e+00 0.0000000000000000e+00 0.0000000000000000e+00  1.0000001312579494e+00 0.0000000000000000e+00 0.0000000000000000e+00  1.0000001312579494e+00 0.0000000000000000e+00 0.0000000000000000e+00  1.0000001312579494e+00 0.0000000000000000e+00 0.0000000000000000e+00  1.0000001312579494e+00 0.0000000000000000e+00 0.0000000000000000e+00  1.0000001312579494e+00 0.0000000000000000e+00 0.0000000000000000e+00  1.0000001312579494e+00 0.0000000000000000e+00 0.0000000000000000e+00  1.0000001312579494e+00 0.0000000000000000e+00 0.0000000000000000e+00  1.0000001312579494e+00 0.0000000000000000e+00 0.0000000000000000e+00  1.0000001312579494e+00 0.0000000000000000e+00 0.0000000000000000e+00  1.0000001312579494e+00 0.0000000000000000e+00 0.0000000000000000e+00  1.0000001312579494e+00 0.0000000000000000e+00 0.0000000000000000e+00  1.0000001312579494e+00 0.0000000000000000e+00 0.0000000000000000e+00  1.0000001312579494e+00 0.0000000000000000e+00 0.0000000000000000e+00  1.0000001312579494e+00 0.0000000000000000e+00 0.0000000000000000e+00  1.0000001312579494e+00 0.0000000000000000e+00 0.0000000000000000e+00  1.0000001312579494e+00 0.0000000000000000e+00 0.0000000000000000e+00  1.0390965853976624e+00 -8.9016602300886639e-03 0.0000000000000000e+00  1.0362902618104137e+00 -1.8020744473138166e-02 0.0000000000000000e+00  1.0344022906218131e+00 -2.8040401934328833e-02 0.0000000000000000e+00  1.0292608038548494e+00 -3.8472671479658320e-02 0.0000000000000000e+00  1.0242704045638062e+00 -5.2657553841236063e-02 0.0000000000000000e+00  1.0287222838844918e+00 -5.5616051206673858e-02 0.0000000000000000e+00  1.0326972864197792e+00 -5.8612762284498486e-02 0.0000000000000000e+00  1.0376754481114880e+00 -6.1233920778094864e-02 0.0000000000000000e+00  1.0428353815599603e+00 -6.3663138207327802e-02 0.0000000000000000e+00  1.0485536765682049e+00 -6.5597177634793072e-02 0.0000000000000000e+00  1.0547648842769257e+00 -6.7138578303052421e-02 0.0000000000000000e+00  1.0612696625139439e+00 -6.7964900654409938e-02 0.0000000000000000e+00  1.0681794391102777e+00 -6.8187149373379552e-02 0.0000000000000000e+00  1.0749930896400866e+00 -6.7485614353995249e-02 0.0000000000000000e+00  1.0819514225563081e+00 -6.6152516278945306e-02 0.0000000000000000e+00  1.0886607997596551e+00 -6.4112269338282291e-02 0.0000000000000000e+00  1.0952389547683758e+00 -6.1025714324415586e-02 0.0000000000000000e+00  1.1011427563629448e+00 -5.7095353676106401e-02 0.0000000000000000e+00  1.1064180654019942e+00 -5.2701550131115250e-02 0.0000000000000000e+00  1.1109342344563284e+00 -4.7745265408041117e-02 0.0000000000000000e+00  1.1145124986464512e+00 -4.2437232143682412e-02 0.0000000000000000e+00  1.1170931891872362e+00 -3.6928658767330327e-02 0.0000000000000000e+00  1.1188148857612679e+00 -3.1569010886319339e-02 0.0000000000000000e+00  1.1195906211876170e+00 -2.6233984556122466e-02 0.0000000000000000e+00  1.1195665598355746e+00 -2.1628374506171541e-02 0.0000000000000000e+00  1.1188354379994123e+00 -1.7222763839133182e-02 0.0000000000000000e+00  1.1175361719847581e+00 -1.3559080413150770e-02 0.0000000000000000e+00  1.1160297721241863e+00 -1.0824934936718919e-02 0.0000000000000000e+00  1.1143705028480233e+00 -8.9228194719064517e-03 0.0000000000000000e+00  1.1128100741911549e+00 -7.8132495951774728e-03 0.0000000000000000e+00  1.1115782858396126e+00 -7.2974462727760352e-03 0.0000000000000000e+00  1.1109401838112836e+00 -7.4208338157862432e-03 0.0000000000000000e+00  1.1108558767223562e+00 -7.8844673128839627e-03 0.0000000000000000e+00  1.1116623897895197e+00 -8.4454396369791681e-03 0.0000000000000000e+00  1.1132979319153609e+00 -8.9398920735689388e-03 0.0000000000000000e+00  1.1156939304807461e+00 -8.96808561985703