<?xml version="1.0"?>
<VTKFile type="UnstructuredGrid"  version="0.1"  >
<UnstructuredGrid>
<Piece  NumberOfPoints="10199" NumberOfCells="20110">
<Points>
<DataArray  type="Float64"  NumberOfComponents="3"  format="ascii">0 -5 0  8 -5 0  30 -5 0  40 -5 0  40 5 0  30 5 0  8 5 0  0 5 0  8 -2.5 0  15 -2.5 0  30 -2.5 0  30 2.5 0  15 2.5 0  8 2.5 0  10 0.5 0  10 -0.5 0  0 0 0  0.4210526315780956 -5 0  0.8421052631563433 -5 0  1.263157894734281 -5 0  1.684210526311999 -5 0  2.105263157889717 -5 0  2.526315789467435 -5 0  2.947368421045153 -5 0  3.368421052622872 -5 0  3.78947368420059 -5 0  4.210526315779479 -5 0  4.631578947359537 -5 0  5.052631578939595 -5 0  5.473684210519653 -5 0  5.89473684209971 -5 0  6.315789473679768 -5 0  6.736842105259826 -5 0  7.157894736839884 -5 0  7.578947368419942 -5 0  8.407407407405314 -5 0  8.814814814810628 -5 0  9.222222222215942 -5 0  9.629629629621256 -5 0  10.03703703702657 -5 0  10.44444444443188 -5 0  10.8518518518372 -5 0  11.25925925924251 -5 0  11.66666666664783 -5 0  12.07407407405314 -5 0  12.48148148145846 -5 0  12.88888888886377 -5 0  13.29629629626908 -5 0  13.7037037036744 -5 0  14.11111111107971 -5 0  14.51851851848502 -5 0  14.92592592589034 -5 0  15.33333333329565 -5 0  15.74074074070096 -5 0  16.14814814810754 -5 0  16.55555555551614 -5 0  16.96296296292474 -5 0  17.37037037033335 -5 0  17.77777777774195 -5 0  18.18518518515056 -5 0  18.59259259255916 -5 0  18.99999999996776 -5 0  19.40740740737636 -5 0  19.81481481478497 -5 0  20.22222222219357 -5 0  20.62962962960217 -5 0  21.03703703701077 -5 0  21.44444444441937 -5 0  21.85185185182797 -5 0  22.25925925923657 -5 0  22.66666666664518 -5 0  23.07407407405378 -5 0  23.48148148146238 -5 0  23.88888888887098 -5 0  24.29629629627958 -5 0  24.70370370368818 -5 0  25.11111111109678 -5 0  25.51851851850539 -5 0  25.92592592591399 -5 0  26.33333333332259 -5 0  26.74074074073119 -5 0  27.14814814813979 -5 0  27.55555555554839 -5 0  27.96296296295699 -5 0  28.3703703703656 -5 0  28.7777777777742 -5 0  29.1851851851828 -5 0  29.5925925925914 -5 0  30.41666666667852 -5 0  30.83333333335704 -5 0  31.25000000003556 -5 0  31.66666666671408 -5 0  32.08333333338936 -5 0  32.50000000005308 -5 0  32.9166666667168 -5 0  33.33333333338052 -5 0  33.75000000004424 -5 0  34.16666666670795 -5 0  34.58333333337167 -5 0  35.00000000003539 -5 0  35.41666666669911 -5 0  35.83333333336282 -5 0  36.25000000002654 -5 0  36.66666666669026 -5 0  37.08333333335398 -5 0  37.50000000001769 -5 0  37.91666666668141 -5 0  38.33333333334513 -5 0  38.75000000000885 -5 0  39.16666666667257 -5 0  39.58333333333628 -5 0  40 -4.583333333332821 0  40 -4.166666666665642 0  40 -3.74999999999855 0  40 -3.333333333333135 0  40 -2.916666666667806 0  40 -2.500000000002478 0  40 -2.083333333337148 0  40 -1.666666666671818 0  40 -1.250000000006488 0  40 -0.8333333333405228 0  40 -0.4166666666733416 0  40 -6.163070054299169e-12 0  40 0.4166666666610173 0  40 0.8333333333281976 0  40 1.249999999995378 0  40 1.666666666662558 0  40 2.083333333329739 0  40 2.499999999996919 0  40 2.916666666664099 0  40 3.33333333333128 0  40 3.74999999999846 0  40 4.166666666665641 0  40 4.583333333332821 0  39.58333333333628 5 0  39.16666666667256 5 0  38.75000000000885 5 0  38.33333333334513 5 0  37.91666666668141 5 0  37.50000000001769 5 0  37.08333333335398 5 0  36.66666666669025 5 0  36.25000000002654 5 0  35.83333333336282 5 0  35.41666666669911 5 0  35.00000000003539 5 0  34.58333333337167 5 0  34.16666666670795 5 0  33.75000000004424 5 0  33.33333333338052 5 0  32.9166666667168 5 0  32.50000000005308 5 0  32.08333333338936 5 0  31.66666666671408 5 0  31.25000000003556 5 0  30.83333333335704 5 0  30.41666666667852 5 0  29.59259259259259 5 0  29.18518518518519 5 0  28.77777777777778 5 0  28.37037037037037 5 0  27.96296296296296 5 0  27.55555555555556 5 0  27.14814814814815 5 0  26.74074074074074 5 0  26.33333333333333 5 0  25.92592592592593 5 0  25.51851851851852 5 0  25.11111111111111 5 0  24.7037037037037 5 0  24.2962962962963 5 0  23.88888888888889 5 0  23.48148148148148 5 0  23.07407407407408 5 0  22.66666666666667 5 0  22.25925925925926 5 0  21.85185185185185 5 0  21.44444444444445 5 0  21.03703703703704 5 0  20.62962962962963 5 0  20.22222222222222 5 0  19.81481481481482 5 0  19.40740740740741 5 0  19 5 0  18.5925925925926 5 0  18.18518518518519 5 0  17.77777777777778 5 0  17.37037037037037 5 0  16.96296296296296 5 0  16.55555555555556 5 0  16.14814814814815 5 0  15.74074074074074 5 0  15.33333333333333 5 0  14.92592592592593 5 0  14.51851851851852 5 0  14.11111111111111 5 0  13.70370370370371 5 0  13.2962962962963 5 0  12.88888888888889 5 0  12.48148148148148 5 0  12.07407407407408 5 0  11.66666666666667 5 0  11.25925925925926 5 0  10.85185185185185 5 0  10.44444444444445 5 0  10.03703703703704 5 0  9.629629629629633 5 0  9.222222222222221 5 0  8.814814814814817 5 0  8.407407407407408 5 0  7.5789473684193 5 0  7.157894736838599 5 0  6.73684210526082 5 0  6.315789473684795 5 0  5.894736842108769 5 0  5.473684210532742 5 0  5.052631578956715 5 0  4.631578947380689 5 0  4.210526315804662 5 0  3.789473684226299 5 0  3.368421052645599 5 0  2.947368421064898 5 0  2.526315789484198 5 0  2.105263157903499 5 0  1.6842105263228 5 0  1.2631578947421 5 0  0.8421052631613994 5 0  0.4210526315806993 5 0  0 4.545454545454545 0  0 4.09090909090909 0  0 3.636363636363634 0  0 3.18181818181818 0  0 2.727272727272726 0  0 2.272727272727271 0  0 1.818181818181817 0  0 1.363636363636363 0  0 0.9090909090909092 0  0 0.454545454545455 0  0 -0.4545454545450807 0  0 -0.9090909090895867 0  0 -1.363636363633713 0  0 -1.818181818177841 0  0 -2.272727272723127 0  0 -2.727272727269273 0  0 -3.181818181815419 0  0 -3.636363636361564 0  0 -4.090909090907709 0  0 -4.545454545453855 0  8 -4.499999999999999 0  8 -3.999999999999999 0  8 -3.499999999999999 0  8 -3 0  8.137254901963859 -2.5 0  8.274509803926303 -2.5 0  8.411764705886863 -2.5 0  8.549019607849138 -2.5 0  8.686274509809513 -2.5 0  8.82352941176989 -2.5 0  8.960784313730265 -2.5 0  9.098039215690642 -2.5 0  9.235294117651017 -2.5 0  9.372549019611395 -2.5 0  9.50980392157177 -2.5 0  9.647058823532147 -2.5 0  9.784313725492522 -2.5 0  9.921568627452897 -2.5 0  10.05882352941327 -2.5 0  10.19607843137365 -2.5 0  10.33333333333402 -2.5 0  10.4705882352944 -2.5 0  10.60784313725478 -2.5 0  10.74509803921515 -2.5 0  10.88235294117553 -2.5 0  11.0196078431359 -2.5 0  11.15686274509628 -2.5 0  11.29411764705665 -2.5 0  11.43137254901703 -2.5 0  11.56862745097915 -2.5 0  11.70588235294301 -2.5 0  11.84313725490686 -2.5 0  11.98039215687072 -2.5 0  12.11764705883209 -2.5 0  12.25490196079247 -2.5 0  12.39215686275285 -2.5 0  12.52941176471322 -2.5 0  12.6666666666736 -2.5 0  12.80392156863397 -2.5 0  12.94117647059435 -2.5 0  13.07843137255473 -2.5 0  13.2156862745151 -2.5 0  13.35294117647548 -2.5 0  13.49019607843586 -2.5 0  13.62745098039623 -2.5 0  13.76470588235661 -2.5 0  13.90196078431699 -2.5 0  14.03921568627736 -2.5 0  14.17647058823774 -2.5 0  14.31372549019812 -2.5 0  14.45098039215849 -2.5 0  14.58823529411887 -2.5 0  14.72549019607925 -2.5 0  14.86274509803962 -2.5 0  15.20270270270254 -2.5 0  15.40540540540509 -2.5 0  15.60810810810763 -2.5 0  15.81081081081017 -2.5 0  16.01351351351227 -2.5 0  16.21621621621265 -2.5 0  16.41891891891279 -2.5 0  16.62162162161294 -2.5 0  16.82432432431308 -2.5 0  17.02702702701322 -2.5 0  17.22972972971337 -2.5 0  17.43243243241351 -2.5 0  17.63513513511365 -2.5 0  17.83783783781379 -2.5 0  18.04054054051394 -2.5 0  18.24324324321408 -2.5 0  18.44594594591422 -2.5 0  18.64864864861436 -2.5 0  18.85135135131451 -2.5 0  19.05405405401465 -2.5 0  19.25675675671479 -2.5 0  19.45945945941494 -2.5 0  19.66216216211508 -2.5 0  19.86486486481522 -2.5 0  20.06756756751536 -2.5 0  20.27027027021551 -2.5 0  20.47297297291565 -2.5 0  20.6756756756158 -2.5 0  20.87837837831594 -2.5 0  21.08108108101608 -2.5 0  21.28378378371622 -2.5 0  21.48648648641637 -2.5 0  21.68918918911651 -2.5 0  21.89189189181666 -2.5 0  22.0945945945168 -2.5 0  22.29729729721694 -2.5 0  22.49999999991778 -2.5 0  22.70270270262203 -2.5 0  22.90540540532697 -2.5 0  23.10810810803191 -2.5 0  23.31081081073686 -2.5 0  23.5135135134418 -2.5 0  23.71621621614674 -2.5 0  23.91891891885169 -2.5 0  24.12162162155663 -2.5 0  24.32432432426158 -2.5 0  24.52702702696652 -2.5 0  24.72972972967146 -2.5 0  24.93243243237641 -2.5 0  25.13513513508135 -2.5 0  25.3378378377863 -2.5 0  25.54054054049124 -2.5 0  25.74324324319618 -2.5 0  25.94594594590112 -2.5 0  26.14864864860607 -2.5 0  26.35135135131101 -2.5 0  26.55405405401596 -2.5 0  26.7567567567209 -2.5 0  26.95945945942584 -2.5 0  27.16216216213079 -2.5 0  27.36486486483573 -2.5 0  27.56756756754068 -2.5 0  27.77027027024562 -2.5 0  27.97297297295056 -2.5 0  28.1756756756555 -2.5 0  28.37837837836045 -2.5 0  28.5810810810654 -2.5 0  28.78378378377034 -2.5 0  28.98648648647528 -2.5 0  29.18918918918023 -2.5 0  29.39189189188517 -2.5 0  29.59459459459011 -2.5 0  29.79729729729506 -2.5 0  30 -3.000000000000001 0  30 -3.500000000000001 0  30 -4.000000000000001 0  30 -4.5 0  8 4.499999999999999 0  8 3.999999999999999 0  8 3.499999999999999 0  8 3 0  8.137254901963859 2.5 0  8.274509803926303 2.5 0  8.411764705886863 2.5 0  8.549019607849138 2.5 0  8.686274509809513 2.5 0  8.82352941176989 2.5 0  8.960784313730265 2.5 0  9.098039215690642 2.5 0  9.235294117651017 2.5 0  9.372549019611395 2.5 0  9.50980392157177 2.5 0  9.647058823532147 2.5 0  9.784313725492522 2.5 0  9.921568627452897 2.5 0  10.05882352941327 2.5 0  10.19607843137365 2.5 0  10.33333333333402 2.5 0  10.4705882352944 2.5 0  10.60784313725478 2.5 0  10.74509803921515 2.5 0  10.88235294117553 2.5 0  11.0196078431359 2.5 0  11.15686274509628 2.5 0  11.29411764705665 2.5 0  11.43137254901703 2.5 0  11.56862745097915 2.5 0  11.70588235294301 2.5 0  11.84313725490686 2.5 0  11.98039215687072 2.5 0  12.11764705883209 2.5 0  12.25490196079247 2.5 0  1
[...]
<PointData  Vectors="f_17"> 
<DataArray  type="Float64"  Name="f_17"  NumberOfComponents="3" format="ascii">1.0000001373533030e+00 0.0000000000000000e+00 0.0000000000000000e+00  1.0509811921541190e+00 0.0000000000000000e+00 0.0000000000000000e+00  1.0206843532090710e+00 0.0000000000000000e+00 0.0000000000000000e+00  9.9973577689588411e-01 0.0000000000000000e+00 0.0000000000000000e+00  9.9963561228231390e-01 0.0000000000000000e+00 0.0000000000000000e+00  1.0199657834022979e+00 0.0000000000000000e+00 0.0000000000000000e+00  1.0503772533272795e+00 0.0000000000000000e+00 0.0000000000000000e+00  1.0000001373533030e+00 0.0000000000000000e+00 0.0000000000000000e+00  1.0222876555780218e+00 -6.1870295469575433e-02 0.0000000000000000e+00  1.1801218453843050e+00 3.9759456667310622e-02 0.0000000000000000e+00  1.0269358103701760e+00 8.0016232792362620e-03 0.0000000000000000e+00  1.0266608173827152e+00 -6.0796656486835510e-03 0.0000000000000000e+00  1.1568613234381655e+00 -3.4123958778022177e-02 0.0000000000000000e+00  1.0216775332858039e+00 6.1906924359155353e-02 0.0000000000000000e+00  0.0000000000000000e+00 0.0000000000000000e+00 0.0000000000000000e+00  0.0000000000000000e+00 0.0000000000000000e+00 0.0000000000000000e+00  1.0000001373533030e+00 0.0000000000000000e+00 0.0000000000000000e+00  9.9932012182374252e-01 0.0000000000000000e+00 0.0000000000000000e+00  9.9880067721172583e-01 0.0000000000000000e+00 0.0000000000000000e+00  1.0008484280042438e+00 0.0000000000000000e+00 0.0000000000000000e+00  1.0007176628098204e+00 0.0000000000000000e+00 0.0000000000000000e+00  1.0017234059490312e+00 0.0000000000000000e+00 0.0000000000000000e+00  1.0021066237473073e+00 0.0000000000000000e+00 0.0000000000000000e+00  1.0024836112445286e+00 0.0000000000000000e+00 0.0000000000000000e+00  1.0034105097951382e+00 0.0000000000000000e+00 0.0000000000000000e+00  1.0047748029203432e+00 0.0000000000000000e+00 0.0000000000000000e+00  1.0060995940009159e+00 0.0000000000000000e+00 0.0000000000000000e+00  1.0078336157979841e+00 0.0000000000000000e+00 0.0000000000000000e+00  1.0103896772166734e+00 0.0000000000000000e+00 0.0000000000000000e+00  1.0131734282917231e+00 0.0000000000000000e+00 0.0000000000000000e+00  1.0176885964777578e+00 0.0000000000000000e+00 0.0000000000000000e+00  1.0201967554135485e+00 0.0000000000000000e+00 0.0000000000000000e+00  1.0257876642437245e+00 0.0000000000000000e+00 0.0000000000000000e+00  1.0337759717037607e+00 0.0000000000000000e+00 0.0000000000000000e+00  1.0408156362307517e+00 0.0000000000000000e+00 0.0000000000000000e+00  1.0616064111190056e+00 0.0000000000000000e+00 0.0000000000000000e+00  1.0732358402233502e+00 0.0000000000000000e+00 0.0000000000000000e+00  1.0849867949174719e+00 0.0000000000000000e+00 0.0000000000000000e+00  1.0979974783016813e+00 0.0000000000000000e+00 0.0000000000000000e+00  1.1100343950187765e+00 0.0000000000000000e+00 0.0000000000000000e+00  1.1219893234134153e+00 0.0000000000000000e+00 0.0000000000000000e+00  1.1338060184758831e+00 0.0000000000000000e+00 0.0000000000000000e+00  1.1430632359654851e+00 0.0000000000000000e+00 0.0000000000000000e+00  1.1514469252811941e+00 0.0000000000000000e+00 0.0000000000000000e+00  1.1577756386930951e+00 0.0000000000000000e+00 0.0000000000000000e+00  1.1626848880114047e+00 0.0000000000000000e+00 0.0000000000000000e+00  1.1647993677322142e+00 0.0000000000000000e+00 0.0000000000000000e+00  1.1662908589619894e+00 0.0000000000000000e+00 0.0000000000000000e+00  1.1656992965135402e+00 0.0000000000000000e+00 0.0000000000000000e+00  1.1637088038999517e+00 0.0000000000000000e+00 0.0000000000000000e+00  1.1607691060056098e+00 0.0000000000000000e+00 0.0000000000000000e+00  1.1564173717720259e+00 0.0000000000000000e+00 0.0000000000000000e+00  1.1512303098220056e+00 0.0000000000000000e+00 0.0000000000000000e+00  1.1446292256585255e+00 0.0000000000000000e+00 0.0000000000000000e+00  1.1372941631589812e+00 0.0000000000000000e+00 0.0000000000000000e+00  1.1305544072286462e+00 0.0000000000000000e+00 0.0000000000000000e+00  1.1244420113328450e+00 0.0000000000000000e+00 0.0000000000000000e+00  1.1168878104985611e+00 0.0000000000000000e+00 0.0000000000000000e+00  1.1108830299378678e+00 0.0000000000000000e+00 0.0000000000000000e+00  1.1049613549608142e+00 0.0000000000000000e+00 0.0000000000000000e+00  1.0996354948247646e+00 0.0000000000000000e+00 0.0000000000000000e+00  1.0950606883859306e+00 0.0000000000000000e+00 0.0000000000000000e+00  1.0904975898467546e+00 0.0000000000000000e+00 0.0000000000000000e+00  1.0860998193199367e+00 0.0000000000000000e+00 0.0000000000000000e+00  1.0821910933260295e+00 0.0000000000000000e+00 0.0000000000000000e+00  1.0774913118292815e+00 0.0000000000000000e+00 0.0000000000000000e+00  1.0725689735526511e+00 0.0000000000000000e+00 0.0000000000000000e+00  1.0691497505760894e+00 0.0000000000000000e+00 0.0000000000000000e+00  1.0646520397760635e+00 0.0000000000000000e+00 0.0000000000000000e+00  1.0600497730369667e+00 0.0000000000000000e+00 0.0000000000000000e+00  1.0566038787529799e+00 0.0000000000000000e+00 0.0000000000000000e+00  1.0525093953550879e+00 0.0000000000000000e+00 0.0000000000000000e+00  1.0485301817362360e+00 0.0000000000000000e+00 0.0000000000000000e+00  1.0463521017988142e+00 0.0000000000000000e+00 0.0000000000000000e+00  1.0435339839481645e+00 0.0000000000000000e+00 0.0000000000000000e+00  1.0409116662634941e+00 0.0000000000000000e+00 0.0000000000000000e+00  1.0393220199221493e+00 0.0000000000000000e+00 0.0000000000000000e+00  1.0372368698249981e+00 0.0000000000000000e+00 0.0000000000000000e+00  1.0353011043885707e+00 0.0000000000000000e+00 0.0000000000000000e+00  1.0341346151151942e+00 0.0000000000000000e+00 0.0000000000000000e+00  1.0321554119312721e+00 0.0000000000000000e+00 0.0000000000000000e+00  1.0299726478261906e+00 0.0000000000000000e+00 0.0000000000000000e+00  1.0302682596623789e+00 0.0000000000000000e+00 0.0000000000000000e+00  1.0285960124026849e+00 0.0000000000000000e+00 0.0000000000000000e+00  1.0253624056671597e+00 0.0000000000000000e+00 0.0000000000000000e+00  1.0232601626004405e+00 0.0000000000000000e+00 0.0000000000000000e+00  1.0228049151266483e+00 0.0000000000000000e+00 0.0000000000000000e+00  1.0214935162110381e+00 0.0000000000000000e+00 0.0000000000000000e+00  1.0195797503047399e+00 0.0000000000000000e+00 0.0000000000000000e+00  1.0177655278514475e+00 0.0000000000000000e+00 0.0000000000000000e+00  1.0160004071378208e+00 0.0000000000000000e+00 0.0000000000000000e+00  1.0151489531111677e+00 0.0000000000000000e+00 0.0000000000000000e+00  1.0143632944723358e+00 0.0000000000000000e+00 0.0000000000000000e+00  1.0132189103728537e+00 0.0000000000000000e+00 0.0000000000000000e+00  1.0121878198225209e+00 0.0000000000000000e+00 0.0000000000000000e+00  1.0114639551335971e+00 0.0000000000000000e+00 0.0000000000000000e+00  1.0107819102840356e+00 0.0000000000000000e+00 0.0000000000000000e+00  1.0096465471671590e+00 0.0000000000000000e+00 0.0000000000000000e+00  1.0090202558173740e+00 0.0000000000000000e+00 0.0000000000000000e+00  1.0081763002424440e+00 0.0000000000000000e+00 0.0000000000000000e+00  1.0070509850874190e+00 0.0000000000000000e+00 0.0000000000000000e+00  1.0064039713115687e+00 0.0000000000000000e+00 0.0000000000000000e+00  1.0056551048551658e+00 0.0000000000000000e+00 0.0000000000000000e+00  1.0054010828580506e+00 0.0000000000000000e+00 0.0000000000000000e+00  1.0042030695112292e+00 0.0000000000000000e+00 0.0000000000000000e+00  1.0035455653567784e+00 0.0000000000000000e+00 0.0000000000000000e+00  1.0025846966141960e+00 0.0000000000000000e+00 0.0000000000000000e+00  1.0023138283889146e+00 0.0000000000000000e+00 0.0000000000000000e+00  1.0014183137674841e+00 0.0000000000000000e+00 0.0000000000000000e+00  1.0011256864991334e+00 0.0000000000000000e+00 0.0000000000000000e+00  9.9999413159885397e-01 0.0000000000000000e+00 0.0000000000000000e+00  1.0003925514049405e+00 6.1798322283227434e-04 0.0000000000000000e+00  1.0016733167337462e+00 1.1331189741183327e-03 0.0000000000000000e+00  1.0035950084073193e+00 1.7444064991843573e-03 0.0000000000000000e+00  1.0041120988805012e+00 2.4656440665175301e-03 0.0000000000000000e+00  1.0049815090857233e+00 3.1166687095519571e-03 0.0000000000000000e+00  1.0044698792365763e+00 3.8993464891718104e-03 0.0000000000000000e+00  1.0035746077820338e+00 4.6856127857579470e-03 0.0000000000000000e+00  1.0024660536447374e+00 5.4147718702047230e-03 0.0000000000000000e+00  9.9943373404391356e-01 5.7862768808865346e-03 0.0000000000000000e+00  9.9477552800418312e-01 5.4273698037051368e-03 0.0000000000000000e+00  9.9086562778861820e-01 2.8402477971618901e-03 0.0000000000000000e+00  9.8880042424557346e-01 -2.4472827987297304e-04 0.0000000000000000e+00  9.8978566268902535e-01 -3.6947136870862031e-03 0.0000000000000000e+00  9.9386130988670540e-01 -5.5622053826819571e-03 0.0000000000000000e+00  9.9938236263863134e-01 -5.5215793073390322e-03 0.0000000000000000e+00  1.0030065986744481e+00 -4.8355118615549426e-03 0.0000000000000000e+00  1.0033704649667792e+00 -4.6597477743064615e-03 0.0000000000000000e+00  1.0034822139894020e+00 -3.8296910906703628e-03 0.0000000000000000e+00  1.0029746446183121e+00 -2.9922952176728562e-03 0.0000000000000000e+00  1.0030659752004876e+00 -2.3395407859806002e-03 0.0000000000000000e+00  1.0020432456369754e+00 -1.6888926944457127e-03 0.0000000000000000e+00  1.0015002468806422e+00 -1.1228942019379771e-03 0.0000000000000000e+00  1.0004036696321801e+00 -6.1963359210613406e-04 0.0000000000000000e+00  1.0000253263975771e+00 0.0000000000000000e+00 0.0000000000000000e+00  1.0006044944840786e+00 0.0000000000000000e+00 0.0000000000000000e+00  1.0012088996717321e+00 0.0000000000000000e+00 0.0000000000000000e+00  1.0021497630524834e+00 0.0000000000000000e+00 0.0000000000000000e+00  1.0024957567432482e+00 0.0000000000000000e+00 0.0000000000000000e+00  1.0033580261850936e+00 0.0000000000000000e+00 0.0000000000000000e+00  1.0044177942167696e+00 0.0000000000000000e+00 0.0000000000000000e+00  1.0056043947275590e+00 0.0000000000000000e+00 0.0000000000000000e+00  1.0061268983579550e+00 0.0000000000000000e+00 0.0000000000000000e+00  1.0069658856990173e+00 0.0000000000000000e+00 0.0000000000000000e+00  1.0076787657836139e+00 0.0000000000000000e+00 0.0000000000000000e+00  1.0082722433405256e+00 0.0000000000000000e+00 0.0000000000000000e+00  1.0089361754901507e+00 0.0000000000000000e+00 0.0000000000000000e+00  1.0103185455921579e+00 0.0000000000000000e+00 0.0000000000000000e+00  1.0109429649564292e+00 0.0000000000000000e+00 0.0000000000000000e+00  1.0125346857533155e+00 0.0000000000000000e+00 0.0000000000000000e+00  1.0128537508468451e+00 0.0000000000000000e+00 0.0000000000000000e+00  1.0137238237919917e+00 0.0000000000000000e+00 0.0000000000000000e+00  1.0143556426808156e+00 0.0000000000000000e+00 0.0000000000000000e+00  1.0156256522025613e+00 0.0000000000000000e+00 0.0000000000000000e+00  1.0166960999963881e+00 0.0000000000000000e+00 0.0000000000000000e+00  1.0174399147719977e+00 0.0000000000000000e+00 0.0000000000000000e+00  1.0187892438036763e+00 0.0000000000000000e+00 0.0000000000000000e+00  1.0204980016269716e+00 0.0000000000000000e+00 0.0000000000000000e+00  1.0218314611980179e+00 0.0000000000000000e+00 0.0000000000000000e+00  1.0221840165192464e+00 0.0000000000000000e+00 0.0000000000000000e+00  1.0241627576422634e+00 0.0000000000000000e+00 0.0000000000000000e+00  1.0270809413527362e+00 0.0000000000000000e+00 0.0000000000000000e+00  1.0289483491887967e+00 0.0000000000000000e+00 0.0000000000000000e+00  1.0290866429480829e+00 0.0000000000000000e+00 0.0000000000000000e+00  1.0315498644589856e+00 0.0000000000000000e+00 0.0000000000000000e+00  1.0340197340633130e+00 0.0000000000000000e+00 0.0000000000000000e+00  1.0357753148982036e+00 0.0000000000000000e+00 0.0000000000000000e+00  1.0382273483345825e+00 0.0000000000000000e+00 0.0000000000000000e+00  1.0407438161728155e+00 0.0000000000000000e+00 0.0000000000000000e+00  1.0425881162665522e+00 0.0000000000000000e+00 0.0000000000000000e+00  1.0452105992930876e+00 0.0000000000000000e+00 0.0000000000000000e+00  1.0477093585483692e+00 0.0000000000000000e+00 0.0000000000000000e+00  1.0493522165035949e+00 0.0000000000000000e+00 0.0000000000000000e+00  1.0522737292175568e+00 0.0000000000000000e+00 0.0000000000000000e+00  1.0552030719471872e+00 0.0000000000000000e+00 0.0000000000000000e+00  1.0573873624544490e+00 0.0000000000000000e+00 0.0000000000000000e+00  1.0607981587502591e+00 0.0000000000000000e+00 0.0000000000000000e+00  1.0644247594326131e+00 0.0000000000000000e+00 0.0000000000000000e+00  1.0674048720772393e+00 0.0000000000000000e+00 0.0000000000000000e+00  1.0724536263139450e+00 0.0000000000000000e+00 0.0000000000000000e+00  1.0778836162451910e+00 0.0000000000000000e+00 0.0000000000000000e+00  1.0831169267877838e+00 0.0000000000000000e+00 0.0000000000000000e+00  1.0892366999956762e+00 0.0000000000000000e+00 0.0000000000000000e+00  1.0956874456631438e+00 0.0000000000000000e+00 0.0000000000000000e+00  1.1020312060893314e+00 0.0000000000000000e+00 0.0000000000000000e+00  1.1086606744612491e+00 0.0000000000000000e+00 0.0000000000000000e+00  1.1153816799915308e+00 0.0000000000000000e+00 0.0000000000000000e+00  1.1212942414818823e+00 0.0000000000000000e+00 0.0000000000000000e+00  1.1279680910967487e+00 0.0000000000000000e+00 0.0000000000000000e+00  1.1327930480716324e+00 0.0000000000000000e+00 0.0000000000000000e+00  1.1379382114068342e+00 0.0000000000000000e+00 0.0000000000000000e+00  1.1434709702350927e+00 0.0000000000000000e+00 0.0000000000000000e+00  1.1487089496664840e+00 0.0000000000000000e+00 0.0000000000000000e+00  1.1528837569700450e+00 0.0000000000000000e+00 0.0000000000000000e+00  1.1562828837456838e+00 0.0000000000000000e+00 0.0000000000000000e+00  1.1592929560049243e+00 0.0000000000000000e+00 0.0000000000000000e+00  1.1621992379670498e+00 0.0000000000000000e+00 0.0000000000000000e+00  1.1633477586150558e+00 0.0000000000000000e+00 0.0000000000000000e+00  1.1625107217683852e+00 0.0000000000000000e+00 0.0000000000000000e+00  1.1614613692694160e+00 0.0000000000000000e+00 0.0000000000000000e+00  1.1568505043005402e+00 0.0000000000000000e+00 0.0000000000000000e+00  1.1512113537723494e+00 0.0000000000000000e+00 0.0000000000000000e+00  1.1432689736081358e+00 0.0000000000000000e+00 0.0000000000000000e+00  1.1331491544038776e+00 0.0000000000000000e+00 0.0000000000000000e+00  1.1217722713554044e+00 0.0000000000000000e+00 0.0000000000000000e+00  1.1097284263711407e+00 0.0000000000000000e+00 0.0000000000000000e+00  1.0973796342610820e+00 0.0000000000000000e+00 0.0000000000000000e+00  1.0841618690649317e+00 0.0000000000000000e+00 0.0000000000000000e+00  1.0725694584440282e+00 0.0000000000000000e+00 0.0000000000000000e+00  1.0609536407312286e+00 0.0000000000000000e+00 0.0000000000000000e+00  1.0404317721831828e+00 0.0000000000000000e+00 0.0000000000000000e+00  1.0320404797855345e+00 0.0000000000000000e+00 0.0000000000000000e+00  1.0255236974544273e+00 0.0000000000000000e+00 0.0000000000000000e+00  1.0196922867770513e+00 0.0000000000000000e+00 0.0000000000000000e+00  1.0150908973051747e+00 0.0000000000000000e+00 0.0000000000000000e+00  1.0114587600135805e+00 0.0000000000000000e+00 0.0000000000000000e+00  1.0086662708033463e+00 0.0000000000000000e+00 0.0000000000000000e+00  1.0060845971702073e+00 0.0000000000000000e+00 0.0000000000000000e+00  1.0042891397974216e+00 0.0000000000000000e+00 0.0000000000000000e+00  1.0030403795078848e+00 0.0000000000000000e+00 0.0000000000000000e+00  1.0016827640527688e+00 0.0000000000000000e+00 0.0000000000000000e+00  1.0014251055998866e+00 0.0000000000000000e+00 0.0000000000000000e+00  1.0003095139064933e+00 0.0000000000000000e+00 0.0000000000000000e+00  1.0002466180716774e+00 0.0000000000000000e+00 0.0000000000000000e+00  9.9981977545033240e-01 0.0000000000000000e+00 0.0000000000000000e+00  1.0004999025035539e+00 0.0000000000000000e+00 0.0000000000000000e+00  1.0002528765899548e+00 0.0000000000000000e+00 0.0000000000000000e+00  9.9979407699690526e-01 0.0000000000000000e+00 0.0000000000000000e+00  1.0000001373533030e+00 0.0000000000000000e+00 0.0000000000000000e+00  1.0000001373533030e+00 0.0000000000000000e+00 0.0000000000000000e+00  1.0000001373533030e+00 0.0000000000000000e+00 0.0000000000000000e+00  1.0000001373533030e+00 0.0000000000000000e+00 0.0000000000000000e+00  1.0000001373533030e+00 0.0000000000000000e+00 0.0000000000000000e+00  1.0000001373533030e+00 0.0000000000000000e+00 0.0000000000000000e+00  1.0000001373533030e+00 0.0000000000000000e+00 0.0000000000000000e+00  1.0000001373533030e+00 0.0000000000000000e+00 0.0000000000000000e+00  1.0000001373533030e+00 0.0000000000000000e+00 0.0000000000000000e+00  1.0000001373533030e+00 0.0000000000000000e+00 0.0000000000000000e+00  1.0000001373533030e+00 0.0000000000000000e+00 0.0000000000000000e+00  1.0000001373533030e+00 0.0000000000000000e+00 0.0000000000000000e+00  1.0000001373533030e+00 0.0000000000000000e+00 0.0000000000000000e+00  1.0000001373533030e+00 0.0000000000000000e+00 0.0000000000000000e+00  1.0000001373533030e+00 0.0000000000000000e+00 0.0000000000000000e+00  1.0000001373533030e+00 0.0000000000000000e+00 0.0000000000000000e+00  1.0000001373533030e+00 0.0000000000000000e+00 0.0000000000000000e+00  1.0000001373533030e+00 0.0000000000000000e+00 0.0000000000000000e+00  1.0000001373533030e+00 0.0000000000000000e+00 0.0000000000000000e+00  1.0000001373533030e+00 0.0000000000000000e+00 0.0000000000000000e+00  1.0500525617695413e+00 -1.2284799614614204e-02 0.0000000000000000e+00  1.0459481664237869e+00 -2.4543234231634164e-02 0.0000000000000000e+00  1.0418726680497152e+00 -3.7050901312779869e-02 0.0000000000000000e+00  1.0337175616121137e+00 -4.9723809624106663e-02 0.0000000000000000e+00  1.0250681560933059e+00 -6.6558840924135568e-02 0.0000000000000000e+00  1.0297326946769345e+00 -7.0912323371956743e-02 0.0000000000000000e+00  1.0339763577347199e+00 -7.5418949780724873e-02 0.0000000000000000e+00  1.0393017250541374e+00 -7.9704222551830253e-02 0.0000000000000000e+00  1.0449262621577957e+00 -8.3925481222888246e-02 0.0000000000000000e+00  1.0512210883188429e+00 -8.7837943623193235e-02 0.0000000000000000e+00  1.0581450594788566e+00 -9.1487553723359247e-02 0.0000000000000000e+00  1.0655957818186512e+00 -9.4572323810582018e-02 0.0000000000000000e+00  1.0736022085335797e+00 -9.7242807974357248e-02 0.0000000000000000e+00  1.0818414633548081e+00 -9.9141446150015800e-02 0.0000000000000000e+00  1.0904895215277162e+00 -1.0050335718116195e-01 0.0000000000000000e+00  1.0993162419798166e+00 -1.0117882963367089e-01 0.0000000000000000e+00  1.1083127465182896e+00 -1.0092902691953243e-01 0.0000000000000000e+00  1.1170885139644664e+00 -9.9880930509869334e-02 0.0000000000000000e+00  1.1257482503612737e+00 -9.8198810507831982e-02 0.0000000000000000e+00  1.1341344949717200e+00 -9.5808964063031243e-02 0.0000000000000000e+00  1.1420389345519586e+00 -9.2728944701998203e-02 0.0000000000000000e+00  1.1495254309102130e+00 -8.9131332984742240e-02 0.0000000000000000e+00  1.1564346488272066e+00 -8.5091764514038049e-02 0.0000000000000000e+00  1.1628359079377990e+00 -8.0558713941663598e-02 0.0000000000000000e+00  1.1686581992138703e+00 -7.5902066746026328e-02 0.0000000000000000e+00  1.1739270132120334e+00 -7.0927012815929738e-02 0.0000000000000000e+00  1.1785110416436553e+00 -6.5752641387023261e-02 0.0000000000000000e+00  1.1826725038079449e+00 -6.0567824963332240e-02 0.0000000000000000e+00  1.1861742977429335e+00 -5.5390378530974872e-02 0.0000000000000000e+00  1.1892015416173158e+00 -5.0232727611176829e-02 0.0000000000000000e+00  1.1916947055511582e+00 -4.5149646215357310e-02 0.0000000000000000e+00  1.1937136905409760e+00 -4.0254232520438651e-02 0.0000000000000000e+00  1.1953295273575066e+00 -3.5437473120002908e-02 0.0000000000000000e+00  1.1965326913012770e+00 -3.0763474854009678e-02 0.0000000000000000e+00  1.1974140114399350e+00 -2.6331267708590730e-02 0.0000000000000000e+00  1.1979837486998521e+00 -2.210667