<?xml version="1.0"?>
<VTKFile type="UnstructuredGrid"  version="0.1"  >
<UnstructuredGrid>
<Piece  NumberOfPoints="10199" NumberOfCells="20110">
<Points>
<DataArray  type="Float64"  NumberOfComponents="3"  format="ascii">0 -5 0  8 -5 0  30 -5 0  40 -5 0  40 5 0  30 5 0  8 5 0  0 5 0  8 -2.5 0  15 -2.5 0  30 -2.5 0  30 2.5 0  15 2.5 0  8 2.5 0  10 0.5 0  10 -0.5 0  0 0 0  0.4210526315780956 -5 0  0.8421052631563433 -5 0  1.263157894734281 -5 0  1.684210526311999 -5 0  2.105263157889717 -5 0  2.526315789467435 -5 0  2.947368421045153 -5 0  3.368421052622872 -5 0  3.78947368420059 -5 0  4.210526315779479 -5 0  4.631578947359537 -5 0  5.052631578939595 -5 0  5.473684210519653 -5 0  5.89473684209971 -5 0  6.315789473679768 -5 0  6.736842105259826 -5 0  7.157894736839884 -5 0  7.578947368419942 -5 0  8.407407407405314 -5 0  8.814814814810628 -5 0  9.222222222215942 -5 0  9.629629629621256 -5 0  10.03703703702657 -5 0  10.44444444443188 -5 0  10.8518518518372 -5 0  11.25925925924251 -5 0  11.66666666664783 -5 0  12.07407407405314 -5 0  12.48148148145846 -5 0  12.88888888886377 -5 0  13.29629629626908 -5 0  13.7037037036744 -5 0  14.11111111107971 -5 0  14.51851851848502 -5 0  14.92592592589034 -5 0  15.33333333329565 -5 0  15.74074074070096 -5 0  16.14814814810754 -5 0  16.55555555551614 -5 0  16.96296296292474 -5 0  17.37037037033335 -5 0  17.77777777774195 -5 0  18.18518518515056 -5 0  18.59259259255916 -5 0  18.99999999996776 -5 0  19.40740740737636 -5 0  19.81481481478497 -5 0  20.22222222219357 -5 0  20.62962962960217 -5 0  21.03703703701077 -5 0  21.44444444441937 -5 0  21.85185185182797 -5 0  22.25925925923657 -5 0  22.66666666664518 -5 0  23.07407407405378 -5 0  23.48148148146238 -5 0  23.88888888887098 -5 0  24.29629629627958 -5 0  24.70370370368818 -5 0  25.11111111109678 -5 0  25.51851851850539 -5 0  25.92592592591399 -5 0  26.33333333332259 -5 0  26.74074074073119 -5 0  27.14814814813979 -5 0  27.55555555554839 -5 0  27.96296296295699 -5 0  28.3703703703656 -5 0  28.7777777777742 -5 0  29.1851851851828 -5 0  29.5925925925914 -5 0  30.41666666667852 -5 0  30.83333333335704 -5 0  31.25000000003556 -5 0  31.66666666671408 -5 0  32.08333333338936 -5 0  32.50000000005308 -5 0  32.9166666667168 -5 0  33.33333333338052 -5 0  33.75000000004424 -5 0  34.16666666670795 -5 0  34.58333333337167 -5 0  35.00000000003539 -5 0  35.41666666669911 -5 0  35.83333333336282 -5 0  36.25000000002654 -5 0  36.66666666669026 -5 0  37.08333333335398 -5 0  37.50000000001769 -5 0  37.91666666668141 -5 0  38.33333333334513 -5 0  38.75000000000885 -5 0  39.16666666667257 -5 0  39.58333333333628 -5 0  40 -4.583333333332821 0  40 -4.166666666665642 0  40 -3.74999999999855 0  40 -3.333333333333135 0  40 -2.916666666667806 0  40 -2.500000000002478 0  40 -2.083333333337148 0  40 -1.666666666671818 0  40 -1.250000000006488 0  40 -0.8333333333405228 0  40 -0.4166666666733416 0  40 -6.163070054299169e-12 0  40 0.4166666666610173 0  40 0.8333333333281976 0  40 1.249999999995378 0  40 1.666666666662558 0  40 2.083333333329739 0  40 2.499999999996919 0  40 2.916666666664099 0  40 3.33333333333128 0  40 3.74999999999846 0  40 4.166666666665641 0  40 4.583333333332821 0  39.58333333333628 5 0  39.16666666667256 5 0  38.75000000000885 5 0  38.33333333334513 5 0  37.91666666668141 5 0  37.50000000001769 5 0  37.08333333335398 5 0  36.66666666669025 5 0  36.25000000002654 5 0  35.83333333336282 5 0  35.41666666669911 5 0  35.00000000003539 5 0  34.58333333337167 5 0  34.16666666670795 5 0  33.75000000004424 5 0  33.33333333338052 5 0  32.9166666667168 5 0  32.50000000005308 5 0  32.08333333338936 5 0  31.66666666671408 5 0  31.25000000003556 5 0  30.83333333335704 5 0  30.41666666667852 5 0  29.59259259259259 5 0  29.18518518518519 5 0  28.77777777777778 5 0  28.37037037037037 5 0  27.96296296296296 5 0  27.55555555555556 5 0  27.14814814814815 5 0  26.74074074074074 5 0  26.33333333333333 5 0  25.92592592592593 5 0  25.51851851851852 5 0  25.11111111111111 5 0  24.7037037037037 5 0  24.2962962962963 5 0  23.88888888888889 5 0  23.48148148148148 5 0  23.07407407407408 5 0  22.66666666666667 5 0  22.25925925925926 5 0  21.85185185185185 5 0  21.44444444444445 5 0  21.03703703703704 5 0  20.62962962962963 5 0  20.22222222222222 5 0  19.81481481481482 5 0  19.40740740740741 5 0  19 5 0  18.5925925925926 5 0  18.18518518518519 5 0  17.77777777777778 5 0  17.37037037037037 5 0  16.96296296296296 5 0  16.55555555555556 5 0  16.14814814814815 5 0  15.74074074074074 5 0  15.33333333333333 5 0  14.92592592592593 5 0  14.51851851851852 5 0  14.11111111111111 5 0  13.70370370370371 5 0  13.2962962962963 5 0  12.88888888888889 5 0  12.48148148148148 5 0  12.07407407407408 5 0  11.66666666666667 5 0  11.25925925925926 5 0  10.85185185185185 5 0  10.44444444444445 5 0  10.03703703703704 5 0  9.629629629629633 5 0  9.222222222222221 5 0  8.814814814814817 5 0  8.407407407407408 5 0  7.5789473684193 5 0  7.157894736838599 5 0  6.73684210526082 5 0  6.315789473684795 5 0  5.894736842108769 5 0  5.473684210532742 5 0  5.052631578956715 5 0  4.631578947380689 5 0  4.210526315804662 5 0  3.789473684226299 5 0  3.368421052645599 5 0  2.947368421064898 5 0  2.526315789484198 5 0  2.105263157903499 5 0  1.6842105263228 5 0  1.2631578947421 5 0  0.8421052631613994 5 0  0.4210526315806993 5 0  0 4.545454545454545 0  0 4.09090909090909 0  0 3.636363636363634 0  0 3.18181818181818 0  0 2.727272727272726 0  0 2.272727272727271 0  0 1.818181818181817 0  0 1.363636363636363 0  0 0.9090909090909092 0  0 0.454545454545455 0  0 -0.4545454545450807 0  0 -0.9090909090895867 0  0 -1.363636363633713 0  0 -1.818181818177841 0  0 -2.272727272723127 0  0 -2.727272727269273 0  0 -3.181818181815419 0  0 -3.636363636361564 0  0 -4.090909090907709 0  0 -4.545454545453855 0  8 -4.499999999999999 0  8 -3.999999999999999 0  8 -3.499999999999999 0  8 -3 0  8.137254901963859 -2.5 0  8.274509803926303 -2.5 0  8.411764705886863 -2.5 0  8.549019607849138 -2.5 0  8.686274509809513 -2.5 0  8.82352941176989 -2.5 0  8.960784313730265 -2.5 0  9.098039215690642 -2.5 0  9.235294117651017 -2.5 0  9.372549019611395 -2.5 0  9.50980392157177 -2.5 0  9.647058823532147 -2.5 0  9.784313725492522 -2.5 0  9.921568627452897 -2.5 0  10.05882352941327 -2.5 0  10.19607843137365 -2.5 0  10.33333333333402 -2.5 0  10.4705882352944 -2.5 0  10.60784313725478 -2.5 0  10.74509803921515 -2.5 0  10.88235294117553 -2.5 0  11.0196078431359 -2.5 0  11.15686274509628 -2.5 0  11.29411764705665 -2.5 0  11.43137254901703 -2.5 0  11.56862745097915 -2.5 0  11.70588235294301 -2.5 0  11.84313725490686 -2.5 0  11.98039215687072 -2.5 0  12.11764705883209 -2.5 0  12.25490196079247 -2.5 0  12.39215686275285 -2.5 0  12.52941176471322 -2.5 0  12.6666666666736 -2.5 0  12.80392156863397 -2.5 0  12.94117647059435 -2.5 0  13.07843137255473 -2.5 0  13.2156862745151 -2.5 0  13.35294117647548 -2.5 0  13.49019607843586 -2.5 0  13.62745098039623 -2.5 0  13.76470588235661 -2.5 0  13.90196078431699 -2.5 0  14.03921568627736 -2.5 0  14.17647058823774 -2.5 0  14.31372549019812 -2.5 0  14.45098039215849 -2.5 0  14.58823529411887 -2.5 0  14.72549019607925 -2.5 0  14.86274509803962 -2.5 0  15.20270270270254 -2.5 0  15.40540540540509 -2.5 0  15.60810810810763 -2.5 0  15.81081081081017 -2.5 0  16.01351351351227 -2.5 0  16.21621621621265 -2.5 0  16.41891891891279 -2.5 0  16.62162162161294 -2.5 0  16.82432432431308 -2.5 0  17.02702702701322 -2.5 0  17.22972972971337 -2.5 0  17.43243243241351 -2.5 0  17.63513513511365 -2.5 0  17.83783783781379 -2.5 0  18.04054054051394 -2.5 0  18.24324324321408 -2.5 0  18.44594594591422 -2.5 0  18.64864864861436 -2.5 0  18.85135135131451 -2.5 0  19.05405405401465 -2.5 0  19.25675675671479 -2.5 0  19.45945945941494 -2.5 0  19.66216216211508 -2.5 0  19.86486486481522 -2.5 0  20.06756756751536 -2.5 0  20.27027027021551 -2.5 0  20.47297297291565 -2.5 0  20.6756756756158 -2.5 0  20.87837837831594 -2.5 0  21.08108108101608 -2.5 0  21.28378378371622 -2.5 0  21.48648648641637 -2.5 0  21.68918918911651 -2.5 0  21.89189189181666 -2.5 0  22.0945945945168 -2.5 0  22.29729729721694 -2.5 0  22.49999999991778 -2.5 0  22.70270270262203 -2.5 0  22.90540540532697 -2.5 0  23.10810810803191 -2.5 0  23.31081081073686 -2.5 0  23.5135135134418 -2.5 0  23.71621621614674 -2.5 0  23.91891891885169 -2.5 0  24.12162162155663 -2.5 0  24.32432432426158 -2.5 0  24.52702702696652 -2.5 0  24.72972972967146 -2.5 0  24.93243243237641 -2.5 0  25.13513513508135 -2.5 0  25.3378378377863 -2.5 0  25.54054054049124 -2.5 0  25.74324324319618 -2.5 0  25.94594594590112 -2.5 0  26.14864864860607 -2.5 0  26.35135135131101 -2.5 0  26.55405405401596 -2.5 0  26.7567567567209 -2.5 0  26.95945945942584 -2.5 0  27.16216216213079 -2.5 0  27.36486486483573 -2.5 0  27.56756756754068 -2.5 0  27.77027027024562 -2.5 0  27.97297297295056 -2.5 0  28.1756756756555 -2.5 0  28.37837837836045 -2.5 0  28.5810810810654 -2.5 0  28.78378378377034 -2.5 0  28.98648648647528 -2.5 0  29.18918918918023 -2.5 0  29.39189189188517 -2.5 0  29.59459459459011 -2.5 0  29.79729729729506 -2.5 0  30 -3.000000000000001 0  30 -3.500000000000001 0  30 -4.000000000000001 0  30 -4.5 0  8 4.499999999999999 0  8 3.999999999999999 0  8 3.499999999999999 0  8 3 0  8.137254901963859 2.5 0  8.274509803926303 2.5 0  8.411764705886863 2.5 0  8.549019607849138 2.5 0  8.686274509809513 2.5 0  8.82352941176989 2.5 0  8.960784313730265 2.5 0  9.098039215690642 2.5 0  9.235294117651017 2.5 0  9.372549019611395 2.5 0  9.50980392157177 2.5 0  9.647058823532147 2.5 0  9.784313725492522 2.5 0  9.921568627452897 2.5 0  10.05882352941327 2.5 0  10.19607843137365 2.5 0  10.33333333333402 2.5 0  10.4705882352944 2.5 0  10.60784313725478 2.5 0  10.74509803921515 2.5 0  10.88235294117553 2.5 0  11.0196078431359 2.5 0  11.15686274509628 2.5 0  11.29411764705665 2.5 0  11.43137254901703 2.5 0  11.56862745097915 2.5 0  11.70588235294301 2.5 0  11.84313725490686 2.5 0  11.98039215687072 2.5 0  12.11764705883209 2.5 0  12.25490196079247 2.5 0  1
[...]
<PointData  Vectors="f_17"> 
<DataArray  type="Float64"  Name="f_17"  NumberOfComponents="3" format="ascii">1.0000001299711676e+00 0.0000000000000000e+00 0.0000000000000000e+00  1.0414384676558825e+00 0.0000000000000000e+00 0.0000000000000000e+00  1.0496050530433176e+00 0.0000000000000000e+00 0.0000000000000000e+00  1.0728085579211495e+00 0.0000000000000000e+00 0.0000000000000000e+00  1.0932757704011578e+00 0.0000000000000000e+00 0.0000000000000000e+00  1.0649470415410753e+00 0.0000000000000000e+00 0.0000000000000000e+00  1.0394225962948527e+00 0.0000000000000000e+00 0.0000000000000000e+00  1.0000001299711676e+00 0.0000000000000000e+00 0.0000000000000000e+00  1.0206115551606096e+00 -5.2113903689976086e-02 0.0000000000000000e+00  1.0339710098200616e+00 -5.6302057966412813e-02 0.0000000000000000e+00  9.8928286506875207e-01 -1.8451365362995551e-02 0.0000000000000000e+00  1.1419055033929471e+00 -2.5505381960710564e-02 0.0000000000000000e+00  1.0704352095933418e+00 -9.0661389174742188e-02 0.0000000000000000e+00  1.0221911218521935e+00 4.9485136720447194e-02 0.0000000000000000e+00  0.0000000000000000e+00 0.0000000000000000e+00 0.0000000000000000e+00  0.0000000000000000e+00 0.0000000000000000e+00 0.0000000000000000e+00  1.0000001299711676e+00 0.0000000000000000e+00 0.0000000000000000e+00  9.9927419205654389e-01 0.0000000000000000e+00 0.0000000000000000e+00  9.9865800197636301e-01 0.0000000000000000e+00 0.0000000000000000e+00  1.0006703913760835e+00 0.0000000000000000e+00 0.0000000000000000e+00  1.0004070068258644e+00 0.0000000000000000e+00 0.0000000000000000e+00  1.0013161429815403e+00 0.0000000000000000e+00 0.0000000000000000e+00  1.0015813337857660e+00 0.0000000000000000e+00 0.0000000000000000e+00  1.0018654142724623e+00 0.0000000000000000e+00 0.0000000000000000e+00  1.0027155293316092e+00 0.0000000000000000e+00 0.0000000000000000e+00  1.0039600023307027e+00 0.0000000000000000e+00 0.0000000000000000e+00  1.0051373172722469e+00 0.0000000000000000e+00 0.0000000000000000e+00  1.0066231670919845e+00 0.0000000000000000e+00 0.0000000000000000e+00  1.0088868280410268e+00 0.0000000000000000e+00 0.0000000000000000e+00  1.0112165108768576e+00 0.0000000000000000e+00 0.0000000000000000e+00  1.0150824836366528e+00 0.0000000000000000e+00 0.0000000000000000e+00  1.0167417354661947e+00 0.0000000000000000e+00 0.0000000000000000e+00  1.0212219227232404e+00 0.0000000000000000e+00 0.0000000000000000e+00  1.0279328528952623e+00 0.0000000000000000e+00 0.0000000000000000e+00  1.0333709521666070e+00 0.0000000000000000e+00 0.0000000000000000e+00  1.0496289016751381e+00 0.0000000000000000e+00 0.0000000000000000e+00  1.0583153222279820e+00 0.0000000000000000e+00 0.0000000000000000e+00  1.0664563944901975e+00 0.0000000000000000e+00 0.0000000000000000e+00  1.0749896451163359e+00 0.0000000000000000e+00 0.0000000000000000e+00  1.0817404477922765e+00 0.0000000000000000e+00 0.0000000000000000e+00  1.0873347410788023e+00 0.0000000000000000e+00 0.0000000000000000e+00  1.0918205210037422e+00 0.0000000000000000e+00 0.0000000000000000e+00  1.0928967548865902e+00 0.0000000000000000e+00 0.0000000000000000e+00  1.0923040516558526e+00 0.0000000000000000e+00 0.0000000000000000e+00  1.0894263110774265e+00 0.0000000000000000e+00 0.0000000000000000e+00  1.0853733085972395e+00 0.0000000000000000e+00 0.0000000000000000e+00  1.0794918070759814e+00 0.0000000000000000e+00 0.0000000000000000e+00  1.0747323534625286e+00 0.0000000000000000e+00 0.0000000000000000e+00  1.0706059288088003e+00 0.0000000000000000e+00 0.0000000000000000e+00  1.0677545540320368e+00 0.0000000000000000e+00 0.0000000000000000e+00  1.0668968215058079e+00 0.0000000000000000e+00 0.0000000000000000e+00  1.0673270325315403e+00 0.0000000000000000e+00 0.0000000000000000e+00  1.0686249320644767e+00 0.0000000000000000e+00 0.0000000000000000e+00  1.0694887793109582e+00 0.0000000000000000e+00 0.0000000000000000e+00  1.0689701665638949e+00 0.0000000000000000e+00 0.0000000000000000e+00  1.0678813441268671e+00 0.0000000000000000e+00 0.0000000000000000e+00  1.0651375233504474e+00 0.0000000000000000e+00 0.0000000000000000e+00  1.0594476910379573e+00 0.0000000000000000e+00 0.0000000000000000e+00  1.0535995573594479e+00 0.0000000000000000e+00 0.0000000000000000e+00  1.0474985172541371e+00 0.0000000000000000e+00 0.0000000000000000e+00  1.0423402156596127e+00 0.0000000000000000e+00 0.0000000000000000e+00  1.0394466357174110e+00 0.0000000000000000e+00 0.0000000000000000e+00  1.0385679954024669e+00 0.0000000000000000e+00 0.0000000000000000e+00  1.0402475473000743e+00 0.0000000000000000e+00 0.0000000000000000e+00  1.0445307491010924e+00 0.0000000000000000e+00 0.0000000000000000e+00  1.0493558600397803e+00 0.0000000000000000e+00 0.0000000000000000e+00  1.0542916553335735e+00 0.0000000000000000e+00 0.0000000000000000e+00  1.0598508966809184e+00 0.0000000000000000e+00 0.0000000000000000e+00  1.0624179154318745e+00 0.0000000000000000e+00 0.0000000000000000e+00  1.0623922532653942e+00 0.0000000000000000e+00 0.0000000000000000e+00  1.0609042264455328e+00 0.0000000000000000e+00 0.0000000000000000e+00  1.0568967132317857e+00 0.0000000000000000e+00 0.0000000000000000e+00  1.0519416556862440e+00 0.0000000000000000e+00 0.0000000000000000e+00  1.0488160456039299e+00 0.0000000000000000e+00 0.0000000000000000e+00  1.0460011934735229e+00 0.0000000000000000e+00 0.0000000000000000e+00  1.0450314373333938e+00 0.0000000000000000e+00 0.0000000000000000e+00  1.0469621468037180e+00 0.0000000000000000e+00 0.0000000000000000e+00  1.0500027466766877e+00 0.0000000000000000e+00 0.0000000000000000e+00  1.0541538291128847e+00 0.0000000000000000e+00 0.0000000000000000e+00  1.0592266338571035e+00 0.0000000000000000e+00 0.0000000000000000e+00  1.0625806821421566e+00 0.0000000000000000e+00 0.0000000000000000e+00  1.0639280559537660e+00 0.0000000000000000e+00 0.0000000000000000e+00  1.0657012730142525e+00 0.0000000000000000e+00 0.0000000000000000e+00  1.0634989467927223e+00 0.0000000000000000e+00 0.0000000000000000e+00  1.0582128280506344e+00 0.0000000000000000e+00 0.0000000000000000e+00  1.0536077570650924e+00 0.0000000000000000e+00 0.0000000000000000e+00  1.0512119446218153e+00 0.0000000000000000e+00 0.0000000000000000e+00  1.0492166968081071e+00 0.0000000000000000e+00 0.0000000000000000e+00  1.0515667477270527e+00 0.0000000000000000e+00 0.0000000000000000e+00  1.0542365590020133e+00 0.0000000000000000e+00 0.0000000000000000e+00  1.0577035090018059e+00 0.0000000000000000e+00 0.0000000000000000e+00  1.0618052519119732e+00 0.0000000000000000e+00 0.0000000000000000e+00  1.0648109967269588e+00 0.0000000000000000e+00 0.0000000000000000e+00  1.0656578097256113e+00 0.0000000000000000e+00 0.0000000000000000e+00  1.0645366329359969e+00 0.0000000000000000e+00 0.0000000000000000e+00  1.0621835185351109e+00 0.0000000000000000e+00 0.0000000000000000e+00  1.0589268522880615e+00 0.0000000000000000e+00 0.0000000000000000e+00  1.0553966024742527e+00 0.0000000000000000e+00 0.0000000000000000e+00  1.0533626281103130e+00 0.0000000000000000e+00 0.0000000000000000e+00  1.0530804383084824e+00 0.0000000000000000e+00 0.0000000000000000e+00  1.0544609562470426e+00 0.0000000000000000e+00 0.0000000000000000e+00  1.0581614262896146e+00 0.0000000000000000e+00 0.0000000000000000e+00  1.0628530701448904e+00 0.0000000000000000e+00 0.0000000000000000e+00  1.0682425895641914e+00 0.0000000000000000e+00 0.0000000000000000e+00  1.0718275074639583e+00 0.0000000000000000e+00 0.0000000000000000e+00  1.0744772248066348e+00 0.0000000000000000e+00 0.0000000000000000e+00  1.0750220707340545e+00 0.0000000000000000e+00 0.0000000000000000e+00  1.0748209816681265e+00 0.0000000000000000e+00 0.0000000000000000e+00  1.0731306418737321e+00 0.0000000000000000e+00 0.0000000000000000e+00  1.0721542527718961e+00 0.0000000000000000e+00 0.0000000000000000e+00  1.0712357722665637e+00 0.0000000000000000e+00 0.0000000000000000e+00  1.0723947294646621e+00 -2.1736952166371433e-03 0.0000000000000000e+00  1.0701068985062638e+00 -4.2256102999821184e-03 0.0000000000000000e+00  1.0650608165684790e+00 -5.7353396739051052e-03 0.0000000000000000e+00  1.0535075815152311e+00 -6.1157547583884763e-03 0.0000000000000000e+00  1.0344792948604138e+00 -5.7636104835244078e-03 0.0000000000000000e+00  1.0031806566453978e+00 -2.4327730464389977e-03 0.0000000000000000e+00  9.5900010250098766e-01 -2.3129537757799589e-03 0.0000000000000000e+00  9.0560400125038210e-01 -6.4952465994512869e-03 0.0000000000000000e+00  8.4552607807288538e-01 -2.1869468387985230e-02 0.0000000000000000e+00  7.8045204784455935e-01 -4.2750594029480130e-02 0.0000000000000000e+00  7.2488994830706222e-01 -5.3681871601966240e-02 0.0000000000000000e+00  7.0560601636864884e-01 -5.0606583724250268e-02 0.0000000000000000e+00  7.4871771175081225e-01 -3.1690212417290149e-02 0.0000000000000000e+00  8.5975313345403082e-01 -7.2317662221311309e-03 0.0000000000000000e+00  1.0046180917261878e+00 2.7842999358206652e-02 0.0000000000000000e+00  1.1264720444589775e+00 4.7408086192986483e-02 0.0000000000000000e+00  1.1859348069605213e+00 4.9737063620240739e-02 0.0000000000000000e+00  1.1872836019229633e+00 4.4213046047970772e-02 0.0000000000000000e+00  1.1586366117448863e+00 3.1582219767061014e-02 0.0000000000000000e+00  1.1289417950085348e+00 2.1526883381231873e-02 0.0000000000000000e+00  1.1100347805954662e+00 1.4088155230694612e-02 0.0000000000000000e+00  1.1007499122197024e+00 8.6588852379573984e-03 0.0000000000000000e+00  1.0953973950496323e+00 3.9653786994069615e-03 0.0000000000000000e+00  1.0880666713518310e+00 0.0000000000000000e+00 0.0000000000000000e+00  1.0813953235875529e+00 0.0000000000000000e+00 0.0000000000000000e+00  1.0740051295480930e+00 0.0000000000000000e+00 0.0000000000000000e+00  1.0676297706436702e+00 0.0000000000000000e+00 0.0000000000000000e+00  1.0622498053901186e+00 0.0000000000000000e+00 0.0000000000000000e+00  1.0596104347135282e+00 0.0000000000000000e+00 0.0000000000000000e+00  1.0593444624707946e+00 0.0000000000000000e+00 0.0000000000000000e+00  1.0612983772478080e+00 0.0000000000000000e+00 0.0000000000000000e+00  1.0636033179885698e+00 0.0000000000000000e+00 0.0000000000000000e+00  1.0663614799589192e+00 0.0000000000000000e+00 0.0000000000000000e+00  1.0680868114440041e+00 0.0000000000000000e+00 0.0000000000000000e+00  1.0682247994891210e+00 0.0000000000000000e+00 0.0000000000000000e+00  1.0665250108276587e+00 0.0000000000000000e+00 0.0000000000000000e+00  1.0639580113889464e+00 0.0000000000000000e+00 0.0000000000000000e+00  1.0594861281413002e+00 0.0000000000000000e+00 0.0000000000000000e+00  1.0560384704389545e+00 0.0000000000000000e+00 0.0000000000000000e+00  1.0520720403298478e+00 0.0000000000000000e+00 0.0000000000000000e+00  1.0503203803370555e+00 0.0000000000000000e+00 0.0000000000000000e+00  1.0503889145340779e+00 0.0000000000000000e+00 0.0000000000000000e+00  1.0529693009912762e+00 0.0000000000000000e+00 0.0000000000000000e+00  1.0564687813794360e+00 0.0000000000000000e+00 0.0000000000000000e+00  1.0601089730835540e+00 0.0000000000000000e+00 0.0000000000000000e+00  1.0634047343567963e+00 0.0000000000000000e+00 0.0000000000000000e+00  1.0638123366735226e+00 0.0000000000000000e+00 0.0000000000000000e+00  1.0614484868226957e+00 0.0000000000000000e+00 0.0000000000000000e+00  1.0568277707282974e+00 0.0000000000000000e+00 0.0000000000000000e+00  1.0532153836158296e+00 0.0000000000000000e+00 0.0000000000000000e+00  1.0509250754855002e+00 0.0000000000000000e+00 0.0000000000000000e+00  1.0488480268927125e+00 0.0000000000000000e+00 0.0000000000000000e+00  1.0467011637465142e+00 0.0000000000000000e+00 0.0000000000000000e+00  1.0487550510113213e+00 0.0000000000000000e+00 0.0000000000000000e+00  1.0523394618741513e+00 0.0000000000000000e+00 0.0000000000000000e+00  1.0559675890776012e+00 0.0000000000000000e+00 0.0000000000000000e+00  1.0600653817948165e+00 0.0000000000000000e+00 0.0000000000000000e+00  1.0629983569882535e+00 0.0000000000000000e+00 0.0000000000000000e+00  1.0632893276783593e+00 0.0000000000000000e+00 0.0000000000000000e+00  1.0620274420591200e+00 0.0000000000000000e+00 0.0000000000000000e+00  1.0584751762622933e+00 0.0000000000000000e+00 0.0000000000000000e+00  1.0527218430681120e+00 0.0000000000000000e+00 0.0000000000000000e+00  1.0479471156362437e+00 0.0000000000000000e+00 0.0000000000000000e+00  1.0439038884109897e+00 0.0000000000000000e+00 0.0000000000000000e+00  1.0406184474185955e+00 0.0000000000000000e+00 0.0000000000000000e+00  1.0406029738460076e+00 0.0000000000000000e+00 0.0000000000000000e+00  1.0427095196098175e+00 0.0000000000000000e+00 0.0000000000000000e+00  1.0456592691962865e+00 0.0000000000000000e+00 0.0000000000000000e+00  1.0511250244178196e+00 0.0000000000000000e+00 0.0000000000000000e+00  1.0565416231846787e+00 0.0000000000000000e+00 0.0000000000000000e+00  1.0601243906711102e+00 0.0000000000000000e+00 0.0000000000000000e+00  1.0621384779522358e+00 0.0000000000000000e+00 0.0000000000000000e+00  1.0618589477597702e+00 0.0000000000000000e+00 0.0000000000000000e+00  1.0589198350630109e+00 0.0000000000000000e+00 0.0000000000000000e+00  1.0548800394985380e+00 0.0000000000000000e+00 0.0000000000000000e+00  1.0503388672134455e+00 0.0000000000000000e+00 0.0000000000000000e+00  1.0462557177513356e+00 0.0000000000000000e+00 0.0000000000000000e+00  1.0445738427155513e+00 0.0000000000000000e+00 0.0000000000000000e+00  1.0440391479110676e+00 0.0000000000000000e+00 0.0000000000000000e+00  1.0463828751168331e+00 0.0000000000000000e+00 0.0000000000000000e+00  1.0516894350638919e+00 0.0000000000000000e+00 0.0000000000000000e+00  1.0585455288233705e+00 0.0000000000000000e+00 0.0000000000000000e+00  1.0657132905422517e+00 0.0000000000000000e+00 0.0000000000000000e+00  1.0725113266436832e+00 0.0000000000000000e+00 0.0000000000000000e+00  1.0790008189795792e+00 0.0000000000000000e+00 0.0000000000000000e+00  1.0850832023518262e+00 0.0000000000000000e+00 0.0000000000000000e+00  1.0889891999173054e+00 0.0000000000000000e+00 0.0000000000000000e+00  1.0912481771282048e+00 0.0000000000000000e+00 0.0000000000000000e+00  1.0935932324126116e+00 0.0000000000000000e+00 0.0000000000000000e+00  1.0930913821198027e+00 0.0000000000000000e+00 0.0000000000000000e+00  1.0923902635243956e+00 0.0000000000000000e+00 0.0000000000000000e+00  1.0902463147909893e+00 0.0000000000000000e+00 0.0000000000000000e+00  1.0863436701780769e+00 0.0000000000000000e+00 0.0000000000000000e+00  1.0814934469060418e+00 0.0000000000000000e+00 0.0000000000000000e+00  1.0759289972117736e+00 0.0000000000000000e+00 0.0000000000000000e+00  1.0695045886784824e+00 0.0000000000000000e+00 0.0000000000000000e+00  1.0617719892233821e+00 0.0000000000000000e+00 0.0000000000000000e+00  1.0546888116914002e+00 0.0000000000000000e+00 0.0000000000000000e+00  1.0469149491211869e+00 0.0000000000000000e+00 0.0000000000000000e+00  1.0321164167001349e+00 0.0000000000000000e+00 0.0000000000000000e+00  1.0256940168135198e+00 0.0000000000000000e+00 0.0000000000000000e+00  1.0205849161262521e+00 0.0000000000000000e+00 0.0000000000000000e+00  1.0159716152780744e+00 0.0000000000000000e+00 0.0000000000000000e+00  1.0122129881377853e+00 0.0000000000000000e+00 0.0000000000000000e+00  1.0092565597136354e+00 0.0000000000000000e+00 0.0000000000000000e+00  1.0070413199496850e+00 0.0000000000000000e+00 0.0000000000000000e+00  1.0049260396451245e+00 0.0000000000000000e+00 0.0000000000000000e+00  1.0034984723800506e+00 0.0000000000000000e+00 0.0000000000000000e+00  1.0025665486439632e+00 0.0000000000000000e+00 0.0000000000000000e+00  1.0014697328689552e+00 0.0000000000000000e+00 0.0000000000000000e+00  1.0013787787952402e+00 0.0000000000000000e+00 0.0000000000000000e+00  1.0003674763571400e+00 0.0000000000000000e+00 0.0000000000000000e+00  1.0003712216567389e+00 0.0000000000000000e+00 0.0000000000000000e+00  9.9994395150535453e-01 0.0000000000000000e+00 0.0000000000000000e+00  1.0005930459284258e+00 0.0000000000000000e+00 0.0000000000000000e+00  1.0002998406235561e+00 0.0000000000000000e+00 0.0000000000000000e+00  9.9980637698202979e-01 0.0000000000000000e+00 0.0000000000000000e+00  1.0000001299711676e+00 0.0000000000000000e+00 0.0000000000000000e+00  1.0000001299711676e+00 0.0000000000000000e+00 0.0000000000000000e+00  1.0000001299711676e+00 0.0000000000000000e+00 0.0000000000000000e+00  1.0000001299711676e+00 0.0000000000000000e+00 0.0000000000000000e+00  1.0000001299711676e+00 0.0000000000000000e+00 0.0000000000000000e+00  1.0000001299711676e+00 0.0000000000000000e+00 0.0000000000000000e+00  1.0000001299711676e+00 0.0000000000000000e+00 0.0000000000000000e+00  1.0000001299711676e+00 0.0000000000000000e+00 0.0000000000000000e+00  1.0000001299711676e+00 0.0000000000000000e+00 0.0000000000000000e+00  1.0000001299711676e+00 0.0000000000000000e+00 0.0000000000000000e+00  1.0000001299711676e+00 0.0000000000000000e+00 0.0000000000000000e+00  1.0000001299711676e+00 0.0000000000000000e+00 0.0000000000000000e+00  1.0000001299711676e+00 0.0000000000000000e+00 0.0000000000000000e+00  1.0000001299711676e+00 0.0000000000000000e+00 0.0000000000000000e+00  1.0000001299711676e+00 0.0000000000000000e+00 0.0000000000000000e+00  1.0000001299711676e+00 0.0000000000000000e+00 0.0000000000000000e+00  1.0000001299711676e+00 0.0000000000000000e+00 0.0000000000000000e+00  1.0000001299711676e+00 0.0000000000000000e+00 0.0000000000000000e+00  1.0000001299711676e+00 0.0000000000000000e+00 0.0000000000000000e+00  1.0000001299711676e+00 0.0000000000000000e+00 0.0000000000000000e+00  1.0408261344147482e+00 -9.5774954982322767e-03 0.0000000000000000e+00  1.0377799046076233e+00 -1.9340403485002548e-02 0.0000000000000000e+00  1.0354455384195267e+00 -2.9816970328050765e-02 0.0000000000000000e+00  1.0295046453333161e+00 -4.0862173367847955e-02 0.0000000000000000e+00  1.0233270621958328e+00 -5.6009409359845455e-02 0.0000000000000000e+00  1.0277605612751290e+00 -5.9567091567912726e-02 0.0000000000000000e+00  1.0318603042257890e+00 -6.3195882603887338e-02 0.0000000000000000e+00  1.0369740212668059e+00 -6.6539859135161181e-02 0.0000000000000000e+00  1.0423888860024886e+00 -6.9728442555274939e-02 0.0000000000000000e+00  1.0484469888727963e+00 -7.2511141322655806e-02 0.0000000000000000e+00  1.0551047106763354e+00 -7.4921638792753056e-02 0.0000000000000000e+00  1.0622452740203130e+00 -7.6664458228148560e-02 0.0000000000000000e+00  1.0699102596036325e+00 -7.7844722234788735e-02 0.0000000000000000e+00  1.0777493043025617e+00 -7.8121842098820907e-02 0.0000000000000000e+00  1.0859351809828879e+00 -7.7706053648838938e-02 0.0000000000000000e+00  1.0942053148310020e+00 -7.6460772541568786e-02 0.0000000000000000e+00  1.1025722886399936e+00 -7.4105309160238372e-02 0.0000000000000000e+00  1.1106066222134052e+00 -7.0755875499264875e-02 0.0000000000000000e+00  1.1183791769056950e+00 -6.6598640640254822e-02 0.0000000000000000e+00  1.1257292673452517e+00 -6.1531752171806078e-02 0.0000000000000000e+00  1.1324242917373299e+00 -5.5576671232432102e-02 0.0000000000000000e+00  1.1384755677437208e+00 -4.8881738211877301e-02 0.0000000000000000e+00  1.1437198699389555e+00 -4.1540979637591874e-02 0.0000000000000000e+00  1.1481504531932407e+00 -3.3455858551397807e-02 0.0000000000000000e+00  1.1516665724684905e+00 -2.5055234277791605e-02 0.0000000000000000e+00  1.1542255628603946e+00 -1.6094264202305485e-02 0.0000000000000000e+00  1.1556010483762755e+00 -6.7458037795138119e-03 0.0000000000000000e+00  1.1560279608706583e+00 2.7455264753688856e-03 0.0000000000000000e+00  1.1551404030777299e+00 1.2288156376814866e-02 0.0000000000000000e+00  1.1530860522160096e+00 2.1816949256348191e-02 0.0000000000000000e+00  1.1497439042296296e+00 3.1131794030935255e-02 0.0000000000000000e+00  1.1451049050838753e+00 3.9947051691626871e-02 0.0000000000000000e+00  1.1392689680015928e+00 4.8292461826441466e-02 0.0000000000000000e+00  1.1321958972156705e+00 5.5942321278644909e-02 0.0000000000000000e+00  1.1240893534610945e+00 6.2564951280807107e-02 0.0000000000000000e+00  1.1150161152493212e+00 6.80724010013