<?xml version="1.0"?>
<VTKFile type="UnstructuredGrid"  version="0.1"  >
<UnstructuredGrid>
<Piece  NumberOfPoints="10199" NumberOfCells="20110">
<Points>
<DataArray  type="Float64"  NumberOfComponents="3"  format="ascii">0 -5 0  8 -5 0  30 -5 0  40 -5 0  40 5 0  30 5 0  8 5 0  0 5 0  8 -2.5 0  15 -2.5 0  30 -2.5 0  30 2.5 0  15 2.5 0  8 2.5 0  10 0.5 0  10 -0.5 0  0 0 0  0.4210526315780956 -5 0  0.8421052631563433 -5 0  1.263157894734281 -5 0  1.684210526311999 -5 0  2.105263157889717 -5 0  2.526315789467435 -5 0  2.947368421045153 -5 0  3.368421052622872 -5 0  3.78947368420059 -5 0  4.210526315779479 -5 0  4.631578947359537 -5 0  5.052631578939595 -5 0  5.473684210519653 -5 0  5.89473684209971 -5 0  6.315789473679768 -5 0  6.736842105259826 -5 0  7.157894736839884 -5 0  7.578947368419942 -5 0  8.407407407405314 -5 0  8.814814814810628 -5 0  9.222222222215942 -5 0  9.629629629621256 -5 0  10.03703703702657 -5 0  10.44444444443188 -5 0  10.8518518518372 -5 0  11.25925925924251 -5 0  11.66666666664783 -5 0  12.07407407405314 -5 0  12.48148148145846 -5 0  12.88888888886377 -5 0  13.29629629626908 -5 0  13.7037037036744 -5 0  14.11111111107971 -5 0  14.51851851848502 -5 0  14.92592592589034 -5 0  15.33333333329565 -5 0  15.74074074070096 -5 0  16.14814814810754 -5 0  16.55555555551614 -5 0  16.96296296292474 -5 0  17.37037037033335 -5 0  17.77777777774195 -5 0  18.18518518515056 -5 0  18.59259259255916 -5 0  18.99999999996776 -5 0  19.40740740737636 -5 0  19.81481481478497 -5 0  20.22222222219357 -5 0  20.62962962960217 -5 0  21.03703703701077 -5 0  21.44444444441937 -5 0  21.85185185182797 -5 0  22.25925925923657 -5 0  22.66666666664518 -5 0  23.07407407405378 -5 0  23.48148148146238 -5 0  23.88888888887098 -5 0  24.29629629627958 -5 0  24.70370370368818 -5 0  25.11111111109678 -5 0  25.51851851850539 -5 0  25.92592592591399 -5 0  26.33333333332259 -5 0  26.74074074073119 -5 0  27.14814814813979 -5 0  27.55555555554839 -5 0  27.96296296295699 -5 0  28.3703703703656 -5 0  28.7777777777742 -5 0  29.1851851851828 -5 0  29.5925925925914 -5 0  30.41666666667852 -5 0  30.83333333335704 -5 0  31.25000000003556 -5 0  31.66666666671408 -5 0  32.08333333338936 -5 0  32.50000000005308 -5 0  32.9166666667168 -5 0  33.33333333338052 -5 0  33.75000000004424 -5 0  34.16666666670795 -5 0  34.58333333337167 -5 0  35.00000000003539 -5 0  35.41666666669911 -5 0  35.83333333336282 -5 0  36.25000000002654 -5 0  36.66666666669026 -5 0  37.08333333335398 -5 0  37.50000000001769 -5 0  37.91666666668141 -5 0  38.33333333334513 -5 0  38.75000000000885 -5 0  39.16666666667257 -5 0  39.58333333333628 -5 0  40 -4.583333333332821 0  40 -4.166666666665642 0  40 -3.74999999999855 0  40 -3.333333333333135 0  40 -2.916666666667806 0  40 -2.500000000002478 0  40 -2.083333333337148 0  40 -1.666666666671818 0  40 -1.250000000006488 0  40 -0.8333333333405228 0  40 -0.4166666666733416 0  40 -6.163070054299169e-12 0  40 0.4166666666610173 0  40 0.8333333333281976 0  40 1.249999999995378 0  40 1.666666666662558 0  40 2.083333333329739 0  40 2.499999999996919 0  40 2.916666666664099 0  40 3.33333333333128 0  40 3.74999999999846 0  40 4.166666666665641 0  40 4.583333333332821 0  39.58333333333628 5 0  39.16666666667256 5 0  38.75000000000885 5 0  38.33333333334513 5 0  37.91666666668141 5 0  37.50000000001769 5 0  37.08333333335398 5 0  36.66666666669025 5 0  36.25000000002654 5 0  35.83333333336282 5 0  35.41666666669911 5 0  35.00000000003539 5 0  34.58333333337167 5 0  34.16666666670795 5 0  33.75000000004424 5 0  33.33333333338052 5 0  32.9166666667168 5 0  32.50000000005308 5 0  32.08333333338936 5 0  31.66666666671408 5 0  31.25000000003556 5 0  30.83333333335704 5 0  30.41666666667852 5 0  29.59259259259259 5 0  29.18518518518519 5 0  28.77777777777778 5 0  28.37037037037037 5 0  27.96296296296296 5 0  27.55555555555556 5 0  27.14814814814815 5 0  26.74074074074074 5 0  26.33333333333333 5 0  25.92592592592593 5 0  25.51851851851852 5 0  25.11111111111111 5 0  24.7037037037037 5 0  24.2962962962963 5 0  23.88888888888889 5 0  23.48148148148148 5 0  23.07407407407408 5 0  22.66666666666667 5 0  22.25925925925926 5 0  21.85185185185185 5 0  21.44444444444445 5 0  21.03703703703704 5 0  20.62962962962963 5 0  20.22222222222222 5 0  19.81481481481482 5 0  19.40740740740741 5 0  19 5 0  18.5925925925926 5 0  18.18518518518519 5 0  17.77777777777778 5 0  17.37037037037037 5 0  16.96296296296296 5 0  16.55555555555556 5 0  16.14814814814815 5 0  15.74074074074074 5 0  15.33333333333333 5 0  14.92592592592593 5 0  14.51851851851852 5 0  14.11111111111111 5 0  13.70370370370371 5 0  13.2962962962963 5 0  12.88888888888889 5 0  12.48148148148148 5 0  12.07407407407408 5 0  11.66666666666667 5 0  11.25925925925926 5 0  10.85185185185185 5 0  10.44444444444445 5 0  10.03703703703704 5 0  9.629629629629633 5 0  9.222222222222221 5 0  8.814814814814817 5 0  8.407407407407408 5 0  7.5789473684193 5 0  7.157894736838599 5 0  6.73684210526082 5 0  6.315789473684795 5 0  5.894736842108769 5 0  5.473684210532742 5 0  5.052631578956715 5 0  4.631578947380689 5 0  4.210526315804662 5 0  3.789473684226299 5 0  3.368421052645599 5 0  2.947368421064898 5 0  2.526315789484198 5 0  2.105263157903499 5 0  1.6842105263228 5 0  1.2631578947421 5 0  0.8421052631613994 5 0  0.4210526315806993 5 0  0 4.545454545454545 0  0 4.09090909090909 0  0 3.636363636363634 0  0 3.18181818181818 0  0 2.727272727272726 0  0 2.272727272727271 0  0 1.818181818181817 0  0 1.363636363636363 0  0 0.9090909090909092 0  0 0.454545454545455 0  0 -0.4545454545450807 0  0 -0.9090909090895867 0  0 -1.363636363633713 0  0 -1.818181818177841 0  0 -2.272727272723127 0  0 -2.727272727269273 0  0 -3.181818181815419 0  0 -3.636363636361564 0  0 -4.090909090907709 0  0 -4.545454545453855 0  8 -4.499999999999999 0  8 -3.999999999999999 0  8 -3.499999999999999 0  8 -3 0  8.137254901963859 -2.5 0  8.274509803926303 -2.5 0  8.411764705886863 -2.5 0  8.549019607849138 -2.5 0  8.686274509809513 -2.5 0  8.82352941176989 -2.5 0  8.960784313730265 -2.5 0  9.098039215690642 -2.5 0  9.235294117651017 -2.5 0  9.372549019611395 -2.5 0  9.50980392157177 -2.5 0  9.647058823532147 -2.5 0  9.784313725492522 -2.5 0  9.921568627452897 -2.5 0  10.05882352941327 -2.5 0  10.19607843137365 -2.5 0  10.33333333333402 -2.5 0  10.4705882352944 -2.5 0  10.60784313725478 -2.5 0  10.74509803921515 -2.5 0  10.88235294117553 -2.5 0  11.0196078431359 -2.5 0  11.15686274509628 -2.5 0  11.29411764705665 -2.5 0  11.43137254901703 -2.5 0  11.56862745097915 -2.5 0  11.70588235294301 -2.5 0  11.84313725490686 -2.5 0  11.98039215687072 -2.5 0  12.11764705883209 -2.5 0  12.25490196079247 -2.5 0  12.39215686275285 -2.5 0  12.52941176471322 -2.5 0  12.6666666666736 -2.5 0  12.80392156863397 -2.5 0  12.94117647059435 -2.5 0  13.07843137255473 -2.5 0  13.2156862745151 -2.5 0  13.35294117647548 -2.5 0  13.49019607843586 -2.5 0  13.62745098039623 -2.5 0  13.76470588235661 -2.5 0  13.90196078431699 -2.5 0  14.03921568627736 -2.5 0  14.17647058823774 -2.5 0  14.31372549019812 -2.5 0  14.45098039215849 -2.5 0  14.58823529411887 -2.5 0  14.72549019607925 -2.5 0  14.86274509803962 -2.5 0  15.20270270270254 -2.5 0  15.40540540540509 -2.5 0  15.60810810810763 -2.5 0  15.81081081081017 -2.5 0  16.01351351351227 -2.5 0  16.21621621621265 -2.5 0  16.41891891891279 -2.5 0  16.62162162161294 -2.5 0  16.82432432431308 -2.5 0  17.02702702701322 -2.5 0  17.22972972971337 -2.5 0  17.43243243241351 -2.5 0  17.63513513511365 -2.5 0  17.83783783781379 -2.5 0  18.04054054051394 -2.5 0  18.24324324321408 -2.5 0  18.44594594591422 -2.5 0  18.64864864861436 -2.5 0  18.85135135131451 -2.5 0  19.05405405401465 -2.5 0  19.25675675671479 -2.5 0  19.45945945941494 -2.5 0  19.66216216211508 -2.5 0  19.86486486481522 -2.5 0  20.06756756751536 -2.5 0  20.27027027021551 -2.5 0  20.47297297291565 -2.5 0  20.6756756756158 -2.5 0  20.87837837831594 -2.5 0  21.08108108101608 -2.5 0  21.28378378371622 -2.5 0  21.48648648641637 -2.5 0  21.68918918911651 -2.5 0  21.89189189181666 -2.5 0  22.0945945945168 -2.5 0  22.29729729721694 -2.5 0  22.49999999991778 -2.5 0  22.70270270262203 -2.5 0  22.90540540532697 -2.5 0  23.10810810803191 -2.5 0  23.31081081073686 -2.5 0  23.5135135134418 -2.5 0  23.71621621614674 -2.5 0  23.91891891885169 -2.5 0  24.12162162155663 -2.5 0  24.32432432426158 -2.5 0  24.52702702696652 -2.5 0  24.72972972967146 -2.5 0  24.93243243237641 -2.5 0  25.13513513508135 -2.5 0  25.3378378377863 -2.5 0  25.54054054049124 -2.5 0  25.74324324319618 -2.5 0  25.94594594590112 -2.5 0  26.14864864860607 -2.5 0  26.35135135131101 -2.5 0  26.55405405401596 -2.5 0  26.7567567567209 -2.5 0  26.95945945942584 -2.5 0  27.16216216213079 -2.5 0  27.36486486483573 -2.5 0  27.56756756754068 -2.5 0  27.77027027024562 -2.5 0  27.97297297295056 -2.5 0  28.1756756756555 -2.5 0  28.37837837836045 -2.5 0  28.5810810810654 -2.5 0  28.78378378377034 -2.5 0  28.98648648647528 -2.5 0  29.18918918918023 -2.5 0  29.39189189188517 -2.5 0  29.59459459459011 -2.5 0  29.79729729729506 -2.5 0  30 -3.000000000000001 0  30 -3.500000000000001 0  30 -4.000000000000001 0  30 -4.5 0  8 4.499999999999999 0  8 3.999999999999999 0  8 3.499999999999999 0  8 3 0  8.137254901963859 2.5 0  8.274509803926303 2.5 0  8.411764705886863 2.5 0  8.549019607849138 2.5 0  8.686274509809513 2.5 0  8.82352941176989 2.5 0  8.960784313730265 2.5 0  9.098039215690642 2.5 0  9.235294117651017 2.5 0  9.372549019611395 2.5 0  9.50980392157177 2.5 0  9.647058823532147 2.5 0  9.784313725492522 2.5 0  9.921568627452897 2.5 0  10.05882352941327 2.5 0  10.19607843137365 2.5 0  10.33333333333402 2.5 0  10.4705882352944 2.5 0  10.60784313725478 2.5 0  10.74509803921515 2.5 0  10.88235294117553 2.5 0  11.0196078431359 2.5 0  11.15686274509628 2.5 0  11.29411764705665 2.5 0  11.43137254901703 2.5 0  11.56862745097915 2.5 0  11.70588235294301 2.5 0  11.84313725490686 2.5 0  11.98039215687072 2.5 0  12.11764705883209 2.5 0  12.25490196079247 2.5 0  1
[...]
<PointData  Vectors="f_17"> 
<DataArray  type="Float64"  Name="f_17"  NumberOfComponents="3" format="ascii">1.0000001313782394e+00 0.0000000000000000e+00 0.0000000000000000e+00  1.0412460149330285e+00 0.0000000000000000e+00 0.0000000000000000e+00  1.0668824805489827e+00 0.0000000000000000e+00 0.0000000000000000e+00  1.1028966736942467e+00 0.0000000000000000e+00 0.0000000000000000e+00  1.0819922095930590e+00 0.0000000000000000e+00 0.0000000000000000e+00  1.0528506370362685e+00 0.0000000000000000e+00 0.0000000000000000e+00  1.0397215932559984e+00 0.0000000000000000e+00 0.0000000000000000e+00  1.0000001313782394e+00 0.0000000000000000e+00 0.0000000000000000e+00  1.0246285354961870e+00 -5.0447873159121658e-02 0.0000000000000000e+00  1.1075905714228118e+00 7.5958948127253484e-02 0.0000000000000000e+00  1.1584556449651109e+00 -2.6124396252433905e-02 0.0000000000000000e+00  9.9153484639260914e-01 -2.2719814297136948e-02 0.0000000000000000e+00  9.9758412069913882e-01 2.4873553944320680e-02 0.0000000000000000e+00  1.0182009538841890e+00 5.1283313690966247e-02 0.0000000000000000e+00  0.0000000000000000e+00 0.0000000000000000e+00 0.0000000000000000e+00  0.0000000000000000e+00 0.0000000000000000e+00 0.0000000000000000e+00  1.0000001313782394e+00 0.0000000000000000e+00 0.0000000000000000e+00  9.9931075495488941e-01 0.0000000000000000e+00 0.0000000000000000e+00  9.9882486524003644e-01 0.0000000000000000e+00 0.0000000000000000e+00  1.0009644995991338e+00 0.0000000000000000e+00 0.0000000000000000e+00  1.0008900482737015e+00 0.0000000000000000e+00 0.0000000000000000e+00  1.0019760542531213e+00 0.0000000000000000e+00 0.0000000000000000e+00  1.0023940753142007e+00 0.0000000000000000e+00 0.0000000000000000e+00  1.0027545427811442e+00 0.0000000000000000e+00 0.0000000000000000e+00  1.0036014033915321e+00 0.0000000000000000e+00 0.0000000000000000e+00  1.0048290029299753e+00 0.0000000000000000e+00 0.0000000000000000e+00  1.0059105624616456e+00 0.0000000000000000e+00 0.0000000000000000e+00  1.0073460840624930e+00 0.0000000000000000e+00 0.0000000000000000e+00  1.0095030855283353e+00 0.0000000000000000e+00 0.0000000000000000e+00  1.0117949967847037e+00 0.0000000000000000e+00 0.0000000000000000e+00  1.0156782793872154e+00 0.0000000000000000e+00 0.0000000000000000e+00  1.0173337853312281e+00 0.0000000000000000e+00 0.0000000000000000e+00  1.0218026401844309e+00 0.0000000000000000e+00 0.0000000000000000e+00  1.0284126786862924e+00 0.0000000000000000e+00 0.0000000000000000e+00  1.0336392951656368e+00 0.0000000000000000e+00 0.0000000000000000e+00  1.0487661200646223e+00 0.0000000000000000e+00 0.0000000000000000e+00  1.0565652055732946e+00 0.0000000000000000e+00 0.0000000000000000e+00  1.0635902709904863e+00 0.0000000000000000e+00 0.0000000000000000e+00  1.0708361964014670e+00 0.0000000000000000e+00 0.0000000000000000e+00  1.0764661155245987e+00 0.0000000000000000e+00 0.0000000000000000e+00  1.0812759729253196e+00 0.0000000000000000e+00 0.0000000000000000e+00  1.0857109207360403e+00 0.0000000000000000e+00 0.0000000000000000e+00  1.0878261374091678e+00 0.0000000000000000e+00 0.0000000000000000e+00  1.0894784494617673e+00 0.0000000000000000e+00 0.0000000000000000e+00  1.0900894150026499e+00 0.0000000000000000e+00 0.0000000000000000e+00  1.0904690420595404e+00 0.0000000000000000e+00 0.0000000000000000e+00  1.0892508928950799e+00 0.0000000000000000e+00 0.0000000000000000e+00  1.0883025871419263e+00 0.0000000000000000e+00 0.0000000000000000e+00  1.0861883147596638e+00 0.0000000000000000e+00 0.0000000000000000e+00  1.0826185514309195e+00 0.0000000000000000e+00 0.0000000000000000e+00  1.0780324768979748e+00 0.0000000000000000e+00 0.0000000000000000e+00  1.0720390971714004e+00 0.0000000000000000e+00 0.0000000000000000e+00  1.0652319278979892e+00 0.0000000000000000e+00 0.0000000000000000e+00  1.0577952167678204e+00 0.0000000000000000e+00 0.0000000000000000e+00  1.0506831241531178e+00 0.0000000000000000e+00 0.0000000000000000e+00  1.0459559013196622e+00 0.0000000000000000e+00 0.0000000000000000e+00  1.0437162117741348e+00 0.0000000000000000e+00 0.0000000000000000e+00  1.0426328612536568e+00 0.0000000000000000e+00 0.0000000000000000e+00  1.0448009748681528e+00 0.0000000000000000e+00 0.0000000000000000e+00  1.0487012868302490e+00 0.0000000000000000e+00 0.0000000000000000e+00  1.0534609638581032e+00 0.0000000000000000e+00 0.0000000000000000e+00  1.0585398577875280e+00 0.0000000000000000e+00 0.0000000000000000e+00  1.0618522597457090e+00 0.0000000000000000e+00 0.0000000000000000e+00  1.0631116790552575e+00 0.0000000000000000e+00 0.0000000000000000e+00  1.0623304946037344e+00 0.0000000000000000e+00 0.0000000000000000e+00  1.0585804798870866e+00 0.0000000000000000e+00 0.0000000000000000e+00  1.0534207746998243e+00 0.0000000000000000e+00 0.0000000000000000e+00  1.0493985793903078e+00 0.0000000000000000e+00 0.0000000000000000e+00  1.0451459622643982e+00 0.0000000000000000e+00 0.0000000000000000e+00  1.0423759907863801e+00 0.0000000000000000e+00 0.0000000000000000e+00  1.0428516421212375e+00 0.0000000000000000e+00 0.0000000000000000e+00  1.0446499710394543e+00 0.0000000000000000e+00 0.0000000000000000e+00  1.0481138090159381e+00 0.0000000000000000e+00 0.0000000000000000e+00  1.0541653590343449e+00 0.0000000000000000e+00 0.0000000000000000e+00  1.0591826288692276e+00 0.0000000000000000e+00 0.0000000000000000e+00  1.0629237748224378e+00 0.0000000000000000e+00 0.0000000000000000e+00  1.0655218474079360e+00 0.0000000000000000e+00 0.0000000000000000e+00  1.0651354240162194e+00 0.0000000000000000e+00 0.0000000000000000e+00  1.0626656088584725e+00 0.0000000000000000e+00 0.0000000000000000e+00  1.0594867622257729e+00 0.0000000000000000e+00 0.0000000000000000e+00  1.0551031176756769e+00 0.0000000000000000e+00 0.0000000000000000e+00  1.0511908286449914e+00 0.0000000000000000e+00 0.0000000000000000e+00  1.0512482162991421e+00 0.0000000000000000e+00 0.0000000000000000e+00  1.0512128660078173e+00 0.0000000000000000e+00 0.0000000000000000e+00  1.0514592975180277e+00 0.0000000000000000e+00 0.0000000000000000e+00  1.0543462976833495e+00 0.0000000000000000e+00 0.0000000000000000e+00  1.0594452714083114e+00 0.0000000000000000e+00 0.0000000000000000e+00  1.0635832755325725e+00 0.0000000000000000e+00 0.0000000000000000e+00  1.0682270232017377e+00 0.0000000000000000e+00 0.0000000000000000e+00  1.0667751262148213e+00 0.0000000000000000e+00 0.0000000000000000e+00  1.0636006426449871e+00 0.0000000000000000e+00 0.0000000000000000e+00  1.0605697860165606e+00 0.0000000000000000e+00 0.0000000000000000e+00  1.0575710149694117e+00 0.0000000000000000e+00 0.0000000000000000e+00  1.0553496391729071e+00 0.0000000000000000e+00 0.0000000000000000e+00  1.0549468260593917e+00 0.0000000000000000e+00 0.0000000000000000e+00  1.0567932245310334e+00 0.0000000000000000e+00 0.0000000000000000e+00  1.0602922143751252e+00 0.0000000000000000e+00 0.0000000000000000e+00  1.0641856201520092e+00 0.0000000000000000e+00 0.0000000000000000e+00  1.0686411584285296e+00 0.0000000000000000e+00 0.0000000000000000e+00  1.0718760413942936e+00 0.0000000000000000e+00 0.0000000000000000e+00  1.0733945216995302e+00 0.0000000000000000e+00 0.0000000000000000e+00  1.0737829324749046e+00 0.0000000000000000e+00 0.0000000000000000e+00  1.0727110384705147e+00 0.0000000000000000e+00 0.0000000000000000e+00  1.0714294110411471e+00 0.0000000000000000e+00 0.0000000000000000e+00  1.0695084978788416e+00 0.0000000000000000e+00 0.0000000000000000e+00  1.0692001886646416e+00 0.0000000000000000e+00 0.0000000000000000e+00  1.0705089992507391e+00 0.0000000000000000e+00 0.0000000000000000e+00  1.0746340527966853e+00 0.0000000000000000e+00 0.0000000000000000e+00  1.0803368857737008e+00 0.0000000000000000e+00 0.0000000000000000e+00  1.0882447868212850e+00 0.0000000000000000e+00 0.0000000000000000e+00  1.0955774220592747e+00 0.0000000000000000e+00 0.0000000000000000e+00  1.1046178303587753e+00 -6.3712362210367017e-03 0.0000000000000000e+00  1.1092695792680516e+00 -1.3977774116794586e-02 0.0000000000000000e+00  1.1180606746702155e+00 -2.4238143270952518e-02 0.0000000000000000e+00  1.1320765442899725e+00 -3.9638362128172198e-02 0.0000000000000000e+00  1.1565819851601662e+00 -6.4141816502279639e-02 0.0000000000000000e+00  1.1785157915810214e+00 -9.7499256711271354e-02 0.0000000000000000e+00  1.1680781876300110e+00 -1.3430383998086790e-01 0.0000000000000000e+00  1.0973251750290072e+00 -1.6155813295524341e-01 0.0000000000000000e+00  9.6840111989291744e-01 -1.6380332612978060e-01 0.0000000000000000e+00  8.2643761367144231e-01 -1.3828379061274407e-01 0.0000000000000000e+00  7.2474950880904698e-01 -1.0805954530135042e-01 0.0000000000000000e+00  6.9281274337935383e-01 -8.6662000060004976e-02 0.0000000000000000e+00  7.1865213584954712e-01 -7.8424384015945092e-02 0.0000000000000000e+00  7.7977100207901373e-01 -7.3834988426578693e-02 0.0000000000000000e+00  8.5343907290947951e-01 -7.2203917370487411e-02 0.0000000000000000e+00  9.2562069865264285e-01 -5.7165052506282558e-02 0.0000000000000000e+00  9.8320444669453100e-01 -3.8025375297826784e-02 0.0000000000000000e+00  1.0238734871051363e+00 -2.1387560250641154e-02 0.0000000000000000e+00  1.0497432066381214e+00 -9.0635030728338142e-03 0.0000000000000000e+00  1.0664388104092248e+00 -2.8588962201598874e-03 0.0000000000000000e+00  1.0754026338140925e+00 2.2882161121258658e-05 0.0000000000000000e+00  1.0804288247707630e+00 8.5907671733412793e-04 0.0000000000000000e+00  1.0820160127502896e+00 6.3808829695860395e-04 0.0000000000000000e+00  1.0817359659907482e+00 0.0000000000000000e+00 0.0000000000000000e+00  1.0825576704610917e+00 0.0000000000000000e+00 0.0000000000000000e+00  1.0835819704126297e+00 0.0000000000000000e+00 0.0000000000000000e+00  1.0842507519220774e+00 0.0000000000000000e+00 0.0000000000000000e+00  1.0829391291982327e+00 0.0000000000000000e+00 0.0000000000000000e+00  1.0804321992520072e+00 0.0000000000000000e+00 0.0000000000000000e+00  1.0766716660915689e+00 0.0000000000000000e+00 0.0000000000000000e+00  1.0720842529526271e+00 0.0000000000000000e+00 0.0000000000000000e+00  1.0669645542463775e+00 0.0000000000000000e+00 0.0000000000000000e+00  1.0631083890002593e+00 0.0000000000000000e+00 0.0000000000000000e+00  1.0610390673116934e+00 0.0000000000000000e+00 0.0000000000000000e+00  1.0607221150339390e+00 0.0000000000000000e+00 0.0000000000000000e+00  1.0623298637427978e+00 0.0000000000000000e+00 0.0000000000000000e+00  1.0655557143978416e+00 0.0000000000000000e+00 0.0000000000000000e+00  1.0681816043025989e+00 0.0000000000000000e+00 0.0000000000000000e+00  1.0707845570258174e+00 0.0000000000000000e+00 0.0000000000000000e+00  1.0705572926883127e+00 0.0000000000000000e+00 0.0000000000000000e+00  1.0690232392161734e+00 0.0000000000000000e+00 0.0000000000000000e+00  1.0656217830728969e+00 0.0000000000000000e+00 0.0000000000000000e+00  1.0617725080053659e+00 0.0000000000000000e+00 0.0000000000000000e+00  1.0577165106376565e+00 0.0000000000000000e+00 0.0000000000000000e+00  1.0539831841019693e+00 0.0000000000000000e+00 0.0000000000000000e+00  1.0525380684635510e+00 0.0000000000000000e+00 0.0000000000000000e+00  1.0542019400440243e+00 0.0000000000000000e+00 0.0000000000000000e+00  1.0577160713934457e+00 0.0000000000000000e+00 0.0000000000000000e+00  1.0604562261072934e+00 0.0000000000000000e+00 0.0000000000000000e+00  1.0641491696094865e+00 0.0000000000000000e+00 0.0000000000000000e+00  1.0672064188532171e+00 0.0000000000000000e+00 0.0000000000000000e+00  1.0669189631858447e+00 0.0000000000000000e+00 0.0000000000000000e+00  1.0626903829256233e+00 0.0000000000000000e+00 0.0000000000000000e+00  1.0592693326423834e+00 0.0000000000000000e+00 0.0000000000000000e+00  1.0549880661395767e+00 0.0000000000000000e+00 0.0000000000000000e+00  1.0502400088654162e+00 0.0000000000000000e+00 0.0000000000000000e+00  1.0474609817652072e+00 0.0000000000000000e+00 0.0000000000000000e+00  1.0465858991594783e+00 0.0000000000000000e+00 0.0000000000000000e+00  1.0470946024876380e+00 0.0000000000000000e+00 0.0000000000000000e+00  1.0501834705676223e+00 0.0000000000000000e+00 0.0000000000000000e+00  1.0543554637075134e+00 0.0000000000000000e+00 0.0000000000000000e+00  1.0577924676382255e+00 0.0000000000000000e+00 0.0000000000000000e+00  1.0615288504103471e+00 0.0000000000000000e+00 0.0000000000000000e+00  1.0632788014933521e+00 0.0000000000000000e+00 0.0000000000000000e+00  1.0617955877477059e+00 0.0000000000000000e+00 0.0000000000000000e+00  1.0588733981046303e+00 0.0000000000000000e+00 0.0000000000000000e+00  1.0540688328182699e+00 0.0000000000000000e+00 0.0000000000000000e+00  1.0474696650779918e+00 0.0000000000000000e+00 0.0000000000000000e+00  1.0429496742925894e+00 0.0000000000000000e+00 0.0000000000000000e+00  1.0398096353988102e+00 0.0000000000000000e+00 0.0000000000000000e+00  1.0381490518665861e+00 0.0000000000000000e+00 0.0000000000000000e+00  1.0394507561474826e+00 0.0000000000000000e+00 0.0000000000000000e+00  1.0430431446554238e+00 0.0000000000000000e+00 0.0000000000000000e+00  1.0479221229204116e+00 0.0000000000000000e+00 0.0000000000000000e+00  1.0538875355900161e+00 0.0000000000000000e+00 0.0000000000000000e+00  1.0595547130766518e+00 0.0000000000000000e+00 0.0000000000000000e+00  1.0636681162816719e+00 0.0000000000000000e+00 0.0000000000000000e+00  1.0666506966038096e+00 0.0000000000000000e+00 0.0000000000000000e+00  1.0664886249561107e+00 0.0000000000000000e+00 0.0000000000000000e+00  1.0650234383145385e+00 0.0000000000000000e+00 0.0000000000000000e+00  1.0636211578430665e+00 0.0000000000000000e+00 0.0000000000000000e+00  1.0621941943456599e+00 0.0000000000000000e+00 0.0000000000000000e+00  1.0613764987693883e+00 0.0000000000000000e+00 0.0000000000000000e+00  1.0619218820296146e+00 0.0000000000000000e+00 0.0000000000000000e+00  1.0647899066262134e+00 0.0000000000000000e+00 0.0000000000000000e+00  1.0701764656607635e+00 0.0000000000000000e+00 0.0000000000000000e+00  1.0760093174934486e+00 0.0000000000000000e+00 0.0000000000000000e+00  1.0819510300244088e+00 0.0000000000000000e+00 0.0000000000000000e+00  1.0888485470951146e+00 0.0000000000000000e+00 0.0000000000000000e+00  1.0926919686816816e+00 0.0000000000000000e+00 0.0000000000000000e+00  1.0954778612350413e+00 0.0000000000000000e+00 0.0000000000000000e+00  1.0955601624820905e+00 0.0000000000000000e+00 0.0000000000000000e+00  1.0927135836601898e+00 0.0000000000000000e+00 0.0000000000000000e+00  1.0878023880097838e+00 0.0000000000000000e+00 0.0000000000000000e+00  1.0814350041519563e+00 0.0000000000000000e+00 0.0000000000000000e+00  1.0738703511701886e+00 0.0000000000000000e+00 0.0000000000000000e+00  1.0648164549651329e+00 0.0000000000000000e+00 0.0000000000000000e+00  1.0566096072266358e+00 0.0000000000000000e+00 0.0000000000000000e+00  1.0479021458705635e+00 0.0000000000000000e+00 0.0000000000000000e+00  1.0319243088955647e+00 0.0000000000000000e+00 0.0000000000000000e+00  1.0252716522887264e+00 0.0000000000000000e+00 0.0000000000000000e+00  1.0200592467095668e+00 0.0000000000000000e+00 0.0000000000000000e+00  1.0154359969406108e+00 0.0000000000000000e+00 0.0000000000000000e+00  1.0116547514162919e+00 0.0000000000000000e+00 0.0000000000000000e+00  1.0086854595593251e+00 0.0000000000000000e+00 0.0000000000000000e+00  1.0064306129155640e+00 0.0000000000000000e+00 0.0000000000000000e+00  1.0042317841788519e+00 0.0000000000000000e+00 0.0000000000000000e+00  1.0027400135391109e+00 0.0000000000000000e+00 0.0000000000000000e+00  1.0017068460326510e+00 0.0000000000000000e+00 0.0000000000000000e+00  1.0005725990710748e+00 0.0000000000000000e+00 0.0000000000000000e+00  1.0005019856690427e+00 0.0000000000000000e+00 0.0000000000000000e+00  9.9957226904102625e-01 0.0000000000000000e+00 0.0000000000000000e+00  9.9969357125546210e-01 0.0000000000000000e+00 0.0000000000000000e+00  9.9946275837713927e-01 0.0000000000000000e+00 0.0000000000000000e+00  1.0002851829740813e+00 0.0000000000000000e+00 0.0000000000000000e+00  1.0001609268829759e+00 0.0000000000000000e+00 0.0000000000000000e+00  9.9978526700377623e-01 0.0000000000000000e+00 0.0000000000000000e+00  1.0000001313782394e+00 0.0000000000000000e+00 0.0000000000000000e+00  1.0000001313782394e+00 0.0000000000000000e+00 0.0000000000000000e+00  1.0000001313782394e+00 0.0000000000000000e+00 0.0000000000000000e+00  1.0000001313782394e+00 0.0000000000000000e+00 0.0000000000000000e+00  1.0000001313782394e+00 0.0000000000000000e+00 0.0000000000000000e+00  1.0000001313782394e+00 0.0000000000000000e+00 0.0000000000000000e+00  1.0000001313782394e+00 0.0000000000000000e+00 0.0000000000000000e+00  1.0000001313782394e+00 0.0000000000000000e+00 0.0000000000000000e+00  1.0000001313782394e+00 0.0000000000000000e+00 0.0000000000000000e+00  1.0000001313782394e+00 0.0000000000000000e+00 0.0000000000000000e+00  1.0000001313782394e+00 0.0000000000000000e+00 0.0000000000000000e+00  1.0000001313782394e+00 0.0000000000000000e+00 0.0000000000000000e+00  1.0000001313782394e+00 0.0000000000000000e+00 0.0000000000000000e+00  1.0000001313782394e+00 0.0000000000000000e+00 0.0000000000000000e+00  1.0000001313782394e+00 0.0000000000000000e+00 0.0000000000000000e+00  1.0000001313782394e+00 0.0000000000000000e+00 0.0000000000000000e+00  1.0000001313782394e+00 0.0000000000000000e+00 0.0000000000000000e+00  1.0000001313782394e+00 0.0000000000000000e+00 0.0000000000000000e+00  1.0000001313782394e+00 0.0000000000000000e+00 0.0000000000000000e+00  1.0000001313782394e+00 0.0000000000000000e+00 0.0000000000000000e+00  1.0407452497517853e+00 -8.8810692377524463e-03 0.0000000000000000e+00  1.0381574812035763e+00 -1.8033287326962341e-02 0.0000000000000000e+00  1.0365994442977320e+00 -2.8230911882489378e-02 0.0000000000000000e+00  1.0318850099385091e+00 -3.9002215372008944e-02 0.0000000000000000e+00  1.0274903907613113e+00 -5.3714672407187150e-02 0.0000000000000000e+00  1.0321726203235404e+00 -5.6559345218450012e-02 0.0000000000000000e+00  1.0363726361120180e+00 -5.9411586504332883e-02 0.0000000000000000e+00  1.0415991191128793e+00 -6.1844947172552088e-02 0.0000000000000000e+00  1.0470092165512583e+00 -6.4043256870698478e-02 0.0000000000000000e+00  1.0529890913191899e+00 -6.5695517277934684e-02 0.0000000000000000e+00  1.0594646538067001e+00 -6.6900587677480472e-02 0.0000000000000000e+00  1.0662388514734096e+00 -6.7325549701040280e-02 0.0000000000000000e+00  1.0734134625808052e+00 -6.7080558889678121e-02 0.0000000000000000e+00  1.0804821572789318e+00 -6.5833345181268099e-02 0.0000000000000000e+00  1.0876810404371287e+00 -6.3871843266032832e-02 0.0000000000000000e+00  1.0946090000051336e+00 -6.1109290125278215e-02 0.0000000000000000e+00  1.1013656327321035e+00 -5.7199208238375848e-02 0.0000000000000000e+00  1.1073869650600461e+00 -5.2333991446642178e-02 0.0000000000000000e+00  1.1127092843956956e+00 -4.6885037974534610e-02 0.0000000000000000e+00  1.1171762740603539e+00 -4.0752902009497896e-02 0.0000000000000000e+00  1.1205565807435149e+00 -3.4117990341403344e-02 0.0000000000000000e+00  1.1227866586616768e+00 -2.7175151150707743e-02 0.0000000000000000e+00  1.1239051425234334e+00 -2.0254710956299396e-02 0.0000000000000000e+00  1.1238246353034114e+00 -1.3249756719742406e-02 0.0000000000000000e+00  1.1226179230335784e+00 -6.9407288730541821e-03 0.0000000000000000e+00  1.1203460931588867e+00 -8.4725829885095086e-04 0.0000000000000000e+00  1.1170349090800586e+00 4.4689015963100013e-03 0.0000000000000000e+00  1.1131121126425583e+00 8.6757453282455353e-03 0.0000000000000000e+00  1.1085234031423556e+00 1.1756408357332557e-02 0.0000000000000000e+00  1.1036027695136057e+00 1.3654004308820255e-02 0.0000000000000000e+00  1.0985906869930884e+00 1.4406348579880697e-02 0.0000000000000000e+00  1.0938126011940474e+00 1.3794277374338184e-02 0.0000000000000000e+00  1.0893814594208944e+00 1.2062482546297855e-02 0.0000000000000000e+00  1.0857373726552955e+00 9.3524017167447172e-03 0.0000000000000000e+00  1.0830977210050809e+00 5.6636033797716348e-03 0.0000000000000000e+00  1.0815565529169808e+00 1.41668298