<?xml version="1.0"?>
<VTKFile type="UnstructuredGrid"  version="0.1"  >
<UnstructuredGrid>
<Piece  NumberOfPoints="10199" NumberOfCells="20110">
<Points>
<DataArray  type="Float64"  NumberOfComponents="3"  format="ascii">0 -5 0  8 -5 0  30 -5 0  40 -5 0  40 5 0  30 5 0  8 5 0  0 5 0  8 -2.5 0  15 -2.5 0  30 -2.5 0  30 2.5 0  15 2.5 0  8 2.5 0  10 0.5 0  10 -0.5 0  0 0 0  0.4210526315780956 -5 0  0.8421052631563433 -5 0  1.263157894734281 -5 0  1.684210526311999 -5 0  2.105263157889717 -5 0  2.526315789467435 -5 0  2.947368421045153 -5 0  3.368421052622872 -5 0  3.78947368420059 -5 0  4.210526315779479 -5 0  4.631578947359537 -5 0  5.052631578939595 -5 0  5.473684210519653 -5 0  5.89473684209971 -5 0  6.315789473679768 -5 0  6.736842105259826 -5 0  7.157894736839884 -5 0  7.578947368419942 -5 0  8.407407407405314 -5 0  8.814814814810628 -5 0  9.222222222215942 -5 0  9.629629629621256 -5 0  10.03703703702657 -5 0  10.44444444443188 -5 0  10.8518518518372 -5 0  11.25925925924251 -5 0  11.66666666664783 -5 0  12.07407407405314 -5 0  12.48148148145846 -5 0  12.88888888886377 -5 0  13.29629629626908 -5 0  13.7037037036744 -5 0  14.11111111107971 -5 0  14.51851851848502 -5 0  14.92592592589034 -5 0  15.33333333329565 -5 0  15.74074074070096 -5 0  16.14814814810754 -5 0  16.55555555551614 -5 0  16.96296296292474 -5 0  17.37037037033335 -5 0  17.77777777774195 -5 0  18.18518518515056 -5 0  18.59259259255916 -5 0  18.99999999996776 -5 0  19.40740740737636 -5 0  19.81481481478497 -5 0  20.22222222219357 -5 0  20.62962962960217 -5 0  21.03703703701077 -5 0  21.44444444441937 -5 0  21.85185185182797 -5 0  22.25925925923657 -5 0  22.66666666664518 -5 0  23.07407407405378 -5 0  23.48148148146238 -5 0  23.88888888887098 -5 0  24.29629629627958 -5 0  24.70370370368818 -5 0  25.11111111109678 -5 0  25.51851851850539 -5 0  25.92592592591399 -5 0  26.33333333332259 -5 0  26.74074074073119 -5 0  27.14814814813979 -5 0  27.55555555554839 -5 0  27.96296296295699 -5 0  28.3703703703656 -5 0  28.7777777777742 -5 0  29.1851851851828 -5 0  29.5925925925914 -5 0  30.41666666667852 -5 0  30.83333333335704 -5 0  31.25000000003556 -5 0  31.66666666671408 -5 0  32.08333333338936 -5 0  32.50000000005308 -5 0  32.9166666667168 -5 0  33.33333333338052 -5 0  33.75000000004424 -5 0  34.16666666670795 -5 0  34.58333333337167 -5 0  35.00000000003539 -5 0  35.41666666669911 -5 0  35.83333333336282 -5 0  36.25000000002654 -5 0  36.66666666669026 -5 0  37.08333333335398 -5 0  37.50000000001769 -5 0  37.91666666668141 -5 0  38.33333333334513 -5 0  38.75000000000885 -5 0  39.16666666667257 -5 0  39.58333333333628 -5 0  40 -4.583333333332821 0  40 -4.166666666665642 0  40 -3.74999999999855 0  40 -3.333333333333135 0  40 -2.916666666667806 0  40 -2.500000000002478 0  40 -2.083333333337148 0  40 -1.666666666671818 0  40 -1.250000000006488 0  40 -0.8333333333405228 0  40 -0.4166666666733416 0  40 -6.163070054299169e-12 0  40 0.4166666666610173 0  40 0.8333333333281976 0  40 1.249999999995378 0  40 1.666666666662558 0  40 2.083333333329739 0  40 2.499999999996919 0  40 2.916666666664099 0  40 3.33333333333128 0  40 3.74999999999846 0  40 4.166666666665641 0  40 4.583333333332821 0  39.58333333333628 5 0  39.16666666667256 5 0  38.75000000000885 5 0  38.33333333334513 5 0  37.91666666668141 5 0  37.50000000001769 5 0  37.08333333335398 5 0  36.66666666669025 5 0  36.25000000002654 5 0  35.83333333336282 5 0  35.41666666669911 5 0  35.00000000003539 5 0  34.58333333337167 5 0  34.16666666670795 5 0  33.75000000004424 5 0  33.33333333338052 5 0  32.9166666667168 5 0  32.50000000005308 5 0  32.08333333338936 5 0  31.66666666671408 5 0  31.25000000003556 5 0  30.83333333335704 5 0  30.41666666667852 5 0  29.59259259259259 5 0  29.18518518518519 5 0  28.77777777777778 5 0  28.37037037037037 5 0  27.96296296296296 5 0  27.55555555555556 5 0  27.14814814814815 5 0  26.74074074074074 5 0  26.33333333333333 5 0  25.92592592592593 5 0  25.51851851851852 5 0  25.11111111111111 5 0  24.7037037037037 5 0  24.2962962962963 5 0  23.88888888888889 5 0  23.48148148148148 5 0  23.07407407407408 5 0  22.66666666666667 5 0  22.25925925925926 5 0  21.85185185185185 5 0  21.44444444444445 5 0  21.03703703703704 5 0  20.62962962962963 5 0  20.22222222222222 5 0  19.81481481481482 5 0  19.40740740740741 5 0  19 5 0  18.5925925925926 5 0  18.18518518518519 5 0  17.77777777777778 5 0  17.37037037037037 5 0  16.96296296296296 5 0  16.55555555555556 5 0  16.14814814814815 5 0  15.74074074074074 5 0  15.33333333333333 5 0  14.92592592592593 5 0  14.51851851851852 5 0  14.11111111111111 5 0  13.70370370370371 5 0  13.2962962962963 5 0  12.88888888888889 5 0  12.48148148148148 5 0  12.07407407407408 5 0  11.66666666666667 5 0  11.25925925925926 5 0  10.85185185185185 5 0  10.44444444444445 5 0  10.03703703703704 5 0  9.629629629629633 5 0  9.222222222222221 5 0  8.814814814814817 5 0  8.407407407407408 5 0  7.5789473684193 5 0  7.157894736838599 5 0  6.73684210526082 5 0  6.315789473684795 5 0  5.894736842108769 5 0  5.473684210532742 5 0  5.052631578956715 5 0  4.631578947380689 5 0  4.210526315804662 5 0  3.789473684226299 5 0  3.368421052645599 5 0  2.947368421064898 5 0  2.526315789484198 5 0  2.105263157903499 5 0  1.6842105263228 5 0  1.2631578947421 5 0  0.8421052631613994 5 0  0.4210526315806993 5 0  0 4.545454545454545 0  0 4.09090909090909 0  0 3.636363636363634 0  0 3.18181818181818 0  0 2.727272727272726 0  0 2.272727272727271 0  0 1.818181818181817 0  0 1.363636363636363 0  0 0.9090909090909092 0  0 0.454545454545455 0  0 -0.4545454545450807 0  0 -0.9090909090895867 0  0 -1.363636363633713 0  0 -1.818181818177841 0  0 -2.272727272723127 0  0 -2.727272727269273 0  0 -3.181818181815419 0  0 -3.636363636361564 0  0 -4.090909090907709 0  0 -4.545454545453855 0  8 -4.499999999999999 0  8 -3.999999999999999 0  8 -3.499999999999999 0  8 -3 0  8.137254901963859 -2.5 0  8.274509803926303 -2.5 0  8.411764705886863 -2.5 0  8.549019607849138 -2.5 0  8.686274509809513 -2.5 0  8.82352941176989 -2.5 0  8.960784313730265 -2.5 0  9.098039215690642 -2.5 0  9.235294117651017 -2.5 0  9.372549019611395 -2.5 0  9.50980392157177 -2.5 0  9.647058823532147 -2.5 0  9.784313725492522 -2.5 0  9.921568627452897 -2.5 0  10.05882352941327 -2.5 0  10.19607843137365 -2.5 0  10.33333333333402 -2.5 0  10.4705882352944 -2.5 0  10.60784313725478 -2.5 0  10.74509803921515 -2.5 0  10.88235294117553 -2.5 0  11.0196078431359 -2.5 0  11.15686274509628 -2.5 0  11.29411764705665 -2.5 0  11.43137254901703 -2.5 0  11.56862745097915 -2.5 0  11.70588235294301 -2.5 0  11.84313725490686 -2.5 0  11.98039215687072 -2.5 0  12.11764705883209 -2.5 0  12.25490196079247 -2.5 0  12.39215686275285 -2.5 0  12.52941176471322 -2.5 0  12.6666666666736 -2.5 0  12.80392156863397 -2.5 0  12.94117647059435 -2.5 0  13.07843137255473 -2.5 0  13.2156862745151 -2.5 0  13.35294117647548 -2.5 0  13.49019607843586 -2.5 0  13.62745098039623 -2.5 0  13.76470588235661 -2.5 0  13.90196078431699 -2.5 0  14.03921568627736 -2.5 0  14.17647058823774 -2.5 0  14.31372549019812 -2.5 0  14.45098039215849 -2.5 0  14.58823529411887 -2.5 0  14.72549019607925 -2.5 0  14.86274509803962 -2.5 0  15.20270270270254 -2.5 0  15.40540540540509 -2.5 0  15.60810810810763 -2.5 0  15.81081081081017 -2.5 0  16.01351351351227 -2.5 0  16.21621621621265 -2.5 0  16.41891891891279 -2.5 0  16.62162162161294 -2.5 0  16.82432432431308 -2.5 0  17.02702702701322 -2.5 0  17.22972972971337 -2.5 0  17.43243243241351 -2.5 0  17.63513513511365 -2.5 0  17.83783783781379 -2.5 0  18.04054054051394 -2.5 0  18.24324324321408 -2.5 0  18.44594594591422 -2.5 0  18.64864864861436 -2.5 0  18.85135135131451 -2.5 0  19.05405405401465 -2.5 0  19.25675675671479 -2.5 0  19.45945945941494 -2.5 0  19.66216216211508 -2.5 0  19.86486486481522 -2.5 0  20.06756756751536 -2.5 0  20.27027027021551 -2.5 0  20.47297297291565 -2.5 0  20.6756756756158 -2.5 0  20.87837837831594 -2.5 0  21.08108108101608 -2.5 0  21.28378378371622 -2.5 0  21.48648648641637 -2.5 0  21.68918918911651 -2.5 0  21.89189189181666 -2.5 0  22.0945945945168 -2.5 0  22.29729729721694 -2.5 0  22.49999999991778 -2.5 0  22.70270270262203 -2.5 0  22.90540540532697 -2.5 0  23.10810810803191 -2.5 0  23.31081081073686 -2.5 0  23.5135135134418 -2.5 0  23.71621621614674 -2.5 0  23.91891891885169 -2.5 0  24.12162162155663 -2.5 0  24.32432432426158 -2.5 0  24.52702702696652 -2.5 0  24.72972972967146 -2.5 0  24.93243243237641 -2.5 0  25.13513513508135 -2.5 0  25.3378378377863 -2.5 0  25.54054054049124 -2.5 0  25.74324324319618 -2.5 0  25.94594594590112 -2.5 0  26.14864864860607 -2.5 0  26.35135135131101 -2.5 0  26.55405405401596 -2.5 0  26.7567567567209 -2.5 0  26.95945945942584 -2.5 0  27.16216216213079 -2.5 0  27.36486486483573 -2.5 0  27.56756756754068 -2.5 0  27.77027027024562 -2.5 0  27.97297297295056 -2.5 0  28.1756756756555 -2.5 0  28.37837837836045 -2.5 0  28.5810810810654 -2.5 0  28.78378378377034 -2.5 0  28.98648648647528 -2.5 0  29.18918918918023 -2.5 0  29.39189189188517 -2.5 0  29.59459459459011 -2.5 0  29.79729729729506 -2.5 0  30 -3.000000000000001 0  30 -3.500000000000001 0  30 -4.000000000000001 0  30 -4.5 0  8 4.499999999999999 0  8 3.999999999999999 0  8 3.499999999999999 0  8 3 0  8.137254901963859 2.5 0  8.274509803926303 2.5 0  8.411764705886863 2.5 0  8.549019607849138 2.5 0  8.686274509809513 2.5 0  8.82352941176989 2.5 0  8.960784313730265 2.5 0  9.098039215690642 2.5 0  9.235294117651017 2.5 0  9.372549019611395 2.5 0  9.50980392157177 2.5 0  9.647058823532147 2.5 0  9.784313725492522 2.5 0  9.921568627452897 2.5 0  10.05882352941327 2.5 0  10.19607843137365 2.5 0  10.33333333333402 2.5 0  10.4705882352944 2.5 0  10.60784313725478 2.5 0  10.74509803921515 2.5 0  10.88235294117553 2.5 0  11.0196078431359 2.5 0  11.15686274509628 2.5 0  11.29411764705665 2.5 0  11.43137254901703 2.5 0  11.56862745097915 2.5 0  11.70588235294301 2.5 0  11.84313725490686 2.5 0  11.98039215687072 2.5 0  12.11764705883209 2.5 0  12.25490196079247 2.5 0  1
[...]
<PointData  Vectors="f_17"> 
<DataArray  type="Float64"  Name="f_17"  NumberOfComponents="3" format="ascii">1.0000001333372184e+00 0.0000000000000000e+00 0.0000000000000000e+00  1.0388827579723614e+00 0.0000000000000000e+00 0.0000000000000000e+00  1.0576522095512204e+00 0.0000000000000000e+00 0.0000000000000000e+00  1.0820514245632979e+00 0.0000000000000000e+00 0.0000000000000000e+00  1.0832457964745521e+00 0.0000000000000000e+00 0.0000000000000000e+00  1.0566812282433924e+00 0.0000000000000000e+00 0.0000000000000000e+00  1.0420264101967096e+00 0.0000000000000000e+00 0.0000000000000000e+00  1.0000001333372184e+00 0.0000000000000000e+00 0.0000000000000000e+00  1.0177978614396548e+00 -4.9540116025697807e-02 0.0000000000000000e+00  9.9536906501690925e-01 5.3297437821993532e-02 0.0000000000000000e+00  1.0472111007553662e+00 7.9733614918236412e-02 0.0000000000000000e+00  1.0877140702785555e+00 9.0352708299345108e-02 0.0000000000000000e+00  1.1371499672246885e+00 6.2318191953172142e-03 0.0000000000000000e+00  1.0249812856638993e+00 5.2109750535992649e-02 0.0000000000000000e+00  0.0000000000000000e+00 0.0000000000000000e+00 0.0000000000000000e+00  0.0000000000000000e+00 0.0000000000000000e+00 0.0000000000000000e+00  1.0000001333372184e+00 0.0000000000000000e+00 0.0000000000000000e+00  9.9929451121865387e-01 0.0000000000000000e+00 0.0000000000000000e+00  9.9871461371962178e-01 0.0000000000000000e+00 0.0000000000000000e+00  1.0007137572780771e+00 0.0000000000000000e+00 0.0000000000000000e+00  1.0004299174559934e+00 0.0000000000000000e+00 0.0000000000000000e+00  1.0012536233779021e+00 0.0000000000000000e+00 0.0000000000000000e+00  1.0013859226292514e+00 0.0000000000000000e+00 0.0000000000000000e+00  1.0014733875851844e+00 0.0000000000000000e+00 0.0000000000000000e+00  1.0020857368872429e+00 0.0000000000000000e+00 0.0000000000000000e+00  1.0030900980411821e+00 0.0000000000000000e+00 0.0000000000000000e+00  1.0040347959176230e+00 0.0000000000000000e+00 0.0000000000000000e+00  1.0053202501298248e+00 0.0000000000000000e+00 0.0000000000000000e+00  1.0074104497868888e+00 0.0000000000000000e+00 0.0000000000000000e+00  1.0095999189870124e+00 0.0000000000000000e+00 0.0000000000000000e+00  1.0133630445443464e+00 0.0000000000000000e+00 0.0000000000000000e+00  1.0149167757934408e+00 0.0000000000000000e+00 0.0000000000000000e+00  1.0192678354940403e+00 0.0000000000000000e+00 0.0000000000000000e+00  1.0258055809031645e+00 0.0000000000000000e+00 0.0000000000000000e+00  1.0310529041599641e+00 0.0000000000000000e+00 0.0000000000000000e+00  1.0468838528836713e+00 0.0000000000000000e+00 0.0000000000000000e+00  1.0554761335141387e+00 0.0000000000000000e+00 0.0000000000000000e+00  1.0637011072292091e+00 0.0000000000000000e+00 0.0000000000000000e+00  1.0726032843316349e+00 0.0000000000000000e+00 0.0000000000000000e+00  1.0801782815820136e+00 0.0000000000000000e+00 0.0000000000000000e+00  1.0871427523763566e+00 0.0000000000000000e+00 0.0000000000000000e+00  1.0935740040165858e+00 0.0000000000000000e+00 0.0000000000000000e+00  1.0970939642638207e+00 0.0000000000000000e+00 0.0000000000000000e+00  1.0992213840981369e+00 0.0000000000000000e+00 0.0000000000000000e+00  1.0988801237540962e+00 0.0000000000000000e+00 0.0000000000000000e+00  1.0966904578879793e+00 0.0000000000000000e+00 0.0000000000000000e+00  1.0913773933815802e+00 0.0000000000000000e+00 0.0000000000000000e+00  1.0854384010032796e+00 0.0000000000000000e+00 0.0000000000000000e+00  1.0781402097969246e+00 0.0000000000000000e+00 0.0000000000000000e+00  1.0704546631607685e+00 0.0000000000000000e+00 0.0000000000000000e+00  1.0637147557062792e+00 0.0000000000000000e+00 0.0000000000000000e+00  1.0582213849919784e+00 0.0000000000000000e+00 0.0000000000000000e+00  1.0548396643798907e+00 0.0000000000000000e+00 0.0000000000000000e+00  1.0533831606854893e+00 0.0000000000000000e+00 0.0000000000000000e+00  1.0537593648579640e+00 0.0000000000000000e+00 0.0000000000000000e+00  1.0567941753631427e+00 0.0000000000000000e+00 0.0000000000000000e+00  1.0607625371870752e+00 0.0000000000000000e+00 0.0000000000000000e+00  1.0630751986396028e+00 0.0000000000000000e+00 0.0000000000000000e+00  1.0647095900623360e+00 0.0000000000000000e+00 0.0000000000000000e+00  1.0641268658079570e+00 0.0000000000000000e+00 0.0000000000000000e+00  1.0612385809428106e+00 0.0000000000000000e+00 0.0000000000000000e+00  1.0570388936554707e+00 0.0000000000000000e+00 0.0000000000000000e+00  1.0514519891498779e+00 0.0000000000000000e+00 0.0000000000000000e+00  1.0461240713523094e+00 0.0000000000000000e+00 0.0000000000000000e+00  1.0422616889689567e+00 0.0000000000000000e+00 0.0000000000000000e+00  1.0396552378105322e+00 0.0000000000000000e+00 0.0000000000000000e+00  1.0392575876170298e+00 0.0000000000000000e+00 0.0000000000000000e+00  1.0427919022035315e+00 0.0000000000000000e+00 0.0000000000000000e+00  1.0470577087755510e+00 0.0000000000000000e+00 0.0000000000000000e+00  1.0520182879446101e+00 0.0000000000000000e+00 0.0000000000000000e+00  1.0578232922670938e+00 0.0000000000000000e+00 0.0000000000000000e+00  1.0613992972156490e+00 0.0000000000000000e+00 0.0000000000000000e+00  1.0626952444325717e+00 0.0000000000000000e+00 0.0000000000000000e+00  1.0630125001948818e+00 0.0000000000000000e+00 0.0000000000000000e+00  1.0603895565027663e+00 0.0000000000000000e+00 0.0000000000000000e+00  1.0562733013075363e+00 0.0000000000000000e+00 0.0000000000000000e+00  1.0526646264426396e+00 0.0000000000000000e+00 0.0000000000000000e+00  1.0490918947373742e+00 0.0000000000000000e+00 0.0000000000000000e+00  1.0470897162539570e+00 0.0000000000000000e+00 0.0000000000000000e+00  1.0477378802550772e+00 0.0000000000000000e+00 0.0000000000000000e+00  1.0494307004448478e+00 0.0000000000000000e+00 0.0000000000000000e+00  1.0523263971248253e+00 0.0000000000000000e+00 0.0000000000000000e+00  1.0585222265413896e+00 0.0000000000000000e+00 0.0000000000000000e+00  1.0623360590861182e+00 0.0000000000000000e+00 0.0000000000000000e+00  1.0633977235733145e+00 0.0000000000000000e+00 0.0000000000000000e+00  1.0636675416332733e+00 0.0000000000000000e+00 0.0000000000000000e+00  1.0635655484337037e+00 0.0000000000000000e+00 0.0000000000000000e+00  1.0607696485693492e+00 0.0000000000000000e+00 0.0000000000000000e+00  1.0541030551911064e+00 0.0000000000000000e+00 0.0000000000000000e+00  1.0509010376124372e+00 0.0000000000000000e+00 0.0000000000000000e+00  1.0494245488402560e+00 0.0000000000000000e+00 0.0000000000000000e+00  1.0507192460139680e+00 0.0000000000000000e+00 0.0000000000000000e+00  1.0539665231005617e+00 0.0000000000000000e+00 0.0000000000000000e+00  1.0577036425526942e+00 0.0000000000000000e+00 0.0000000000000000e+00  1.0618059446547807e+00 0.0000000000000000e+00 0.0000000000000000e+00  1.0652458598130374e+00 0.0000000000000000e+00 0.0000000000000000e+00  1.0673249447930937e+00 0.0000000000000000e+00 0.0000000000000000e+00  1.0669886826015313e+00 0.0000000000000000e+00 0.0000000000000000e+00  1.0654983443574415e+00 0.0000000000000000e+00 0.0000000000000000e+00  1.0626088083612240e+00 0.0000000000000000e+00 0.0000000000000000e+00  1.0592424665473350e+00 0.0000000000000000e+00 0.0000000000000000e+00  1.0570926984171194e+00 0.0000000000000000e+00 0.0000000000000000e+00  1.0564064695665614e+00 0.0000000000000000e+00 0.0000000000000000e+00  1.0582667628699236e+00 0.0000000000000000e+00 0.0000000000000000e+00  1.0613042602686422e+00 0.0000000000000000e+00 0.0000000000000000e+00  1.0663736192935296e+00 0.0000000000000000e+00 0.0000000000000000e+00  1.0717379887943697e+00 0.0000000000000000e+00 0.0000000000000000e+00  1.0773609464383487e+00 0.0000000000000000e+00 0.0000000000000000e+00  1.0809566263643378e+00 0.0000000000000000e+00 0.0000000000000000e+00  1.0833014383642086e+00 0.0000000000000000e+00 0.0000000000000000e+00  1.0828931460957161e+00 0.0000000000000000e+00 0.0000000000000000e+00  1.0830240472120261e+00 1.8365001476892773e-03 0.0000000000000000e+00  1.0852139224409323e+00 4.6238560928114226e-03 0.0000000000000000e+00  1.0889919854526271e+00 9.8463974761748563e-03 0.0000000000000000e+00  1.0936488127051727e+00 2.0157211634529434e-02 0.0000000000000000e+00  1.1014904914900454e+00 3.9949750855349769e-02 0.0000000000000000e+00  1.1038856474245529e+00 7.1512910184170178e-02 0.0000000000000000e+00  1.0868623029113185e+00 1.1987652931000567e-01 0.0000000000000000e+00  1.0374157841048934e+00 1.7347313448310811e-01 0.0000000000000000e+00  9.5556544330785276e-01 2.2476254493437894e-01 0.0000000000000000e+00  8.6152245346437073e-01 2.5391761961457082e-01 0.0000000000000000e+00  7.8258931447633562e-01 2.7240240078429595e-01 0.0000000000000000e+00  7.3978846624488148e-01 2.8362372428315402e-01 0.0000000000000000e+00  7.4801744248667645e-01 2.9386066179827358e-01 0.0000000000000000e+00  8.0343200462897224e-01 2.9971776016569690e-01 0.0000000000000000e+00  8.8913762591853773e-01 2.8600596744472190e-01 0.0000000000000000e+00  9.7354742794557791e-01 2.4506910615456218e-01 0.0000000000000000e+00  1.0302398783615494e+00 1.8746055880967763e-01 0.0000000000000000e+00  1.0557591601593359e+00 1.2641399316294508e-01 0.0000000000000000e+00  1.0667853302166346e+00 8.2215305862792340e-02 0.0000000000000000e+00  1.0757450379489029e+00 5.1890683594504668e-02 0.0000000000000000e+00  1.0807877177230194e+00 3.2682925389971321e-02 0.0000000000000000e+00  1.0833898829179667e+00 1.9159781966006800e-02 0.0000000000000000e+00  1.0836843559289395e+00 8.7172032513201138e-03 0.0000000000000000e+00  1.0752775581962513e+00 0.0000000000000000e+00 0.0000000000000000e+00  1.0693196832709617e+00 0.0000000000000000e+00 0.0000000000000000e+00  1.0657434120638547e+00 0.0000000000000000e+00 0.0000000000000000e+00  1.0650815008396195e+00 0.0000000000000000e+00 0.0000000000000000e+00  1.0656101737649468e+00 0.0000000000000000e+00 0.0000000000000000e+00  1.0675044332452370e+00 0.0000000000000000e+00 0.0000000000000000e+00  1.0695467356517092e+00 0.0000000000000000e+00 0.0000000000000000e+00  1.0708083374794770e+00 0.0000000000000000e+00 0.0000000000000000e+00  1.0697497385470405e+00 0.0000000000000000e+00 0.0000000000000000e+00  1.0673359671037050e+00 0.0000000000000000e+00 0.0000000000000000e+00  1.0633454427671938e+00 0.0000000000000000e+00 0.0000000000000000e+00  1.0586185461325810e+00 0.0000000000000000e+00 0.0000000000000000e+00  1.0542794018600770e+00 0.0000000000000000e+00 0.0000000000000000e+00  1.0519681735874666e+00 0.0000000000000000e+00 0.0000000000000000e+00  1.0507461333632151e+00 0.0000000000000000e+00 0.0000000000000000e+00  1.0525402242519373e+00 0.0000000000000000e+00 0.0000000000000000e+00  1.0547503656958692e+00 0.0000000000000000e+00 0.0000000000000000e+00  1.0583962297198257e+00 0.0000000000000000e+00 0.0000000000000000e+00  1.0616385657102378e+00 0.0000000000000000e+00 0.0000000000000000e+00  1.0644057104840716e+00 0.0000000000000000e+00 0.0000000000000000e+00  1.0651043919210108e+00 0.0000000000000000e+00 0.0000000000000000e+00  1.0634023270603112e+00 0.0000000000000000e+00 0.0000000000000000e+00  1.0606628440951005e+00 0.0000000000000000e+00 0.0000000000000000e+00  1.0522091610092690e+00 0.0000000000000000e+00 0.0000000000000000e+00  1.0492310668305964e+00 0.0000000000000000e+00 0.0000000000000000e+00  1.0468902885715732e+00 0.0000000000000000e+00 0.0000000000000000e+00  1.0479816823316883e+00 0.0000000000000000e+00 0.0000000000000000e+00  1.0518023288627192e+00 0.0000000000000000e+00 0.0000000000000000e+00  1.0556441776108434e+00 0.0000000000000000e+00 0.0000000000000000e+00  1.0580647146150430e+00 0.0000000000000000e+00 0.0000000000000000e+00  1.0620389250840172e+00 0.0000000000000000e+00 0.0000000000000000e+00  1.0642768845475994e+00 0.0000000000000000e+00 0.0000000000000000e+00  1.0635732953130319e+00 0.0000000000000000e+00 0.0000000000000000e+00  1.0612868269825575e+00 0.0000000000000000e+00 0.0000000000000000e+00  1.0572779701753168e+00 0.0000000000000000e+00 0.0000000000000000e+00  1.0517816323991960e+00 0.0000000000000000e+00 0.0000000000000000e+00  1.0474282301555136e+00 0.0000000000000000e+00 0.0000000000000000e+00  1.0442624513859768e+00 0.0000000000000000e+00 0.0000000000000000e+00  1.0421395182211799e+00 0.0000000000000000e+00 0.0000000000000000e+00  1.0435510247047011e+00 0.0000000000000000e+00 0.0000000000000000e+00  1.0468558990186443e+00 0.0000000000000000e+00 0.0000000000000000e+00  1.0506190330320695e+00 0.0000000000000000e+00 0.0000000000000000e+00  1.0556182187368097e+00 0.0000000000000000e+00 0.0000000000000000e+00  1.0596965368612239e+00 0.0000000000000000e+00 0.0000000000000000e+00  1.0610169591527676e+00 0.0000000000000000e+00 0.0000000000000000e+00  1.0613296342935050e+00 0.0000000000000000e+00 0.0000000000000000e+00  1.0592006959777409e+00 0.0000000000000000e+00 0.0000000000000000e+00  1.0542776517197694e+00 0.0000000000000000e+00 0.0000000000000000e+00  1.0489683448999554e+00 0.0000000000000000e+00 0.0000000000000000e+00  1.0439343457122692e+00 0.0000000000000000e+00 0.0000000000000000e+00  1.0399605370165503e+00 0.0000000000000000e+00 0.0000000000000000e+00  1.0385463380013229e+00 0.0000000000000000e+00 0.0000000000000000e+00  1.0397200690410033e+00 0.0000000000000000e+00 0.0000000000000000e+00  1.0429730774807486e+00 0.0000000000000000e+00 0.0000000000000000e+00  1.0489003428348354e+00 0.0000000000000000e+00 0.0000000000000000e+00  1.0546684915195659e+00 0.0000000000000000e+00 0.0000000000000000e+00  1.0609982970885552e+00 0.0000000000000000e+00 0.0000000000000000e+00  1.0673619038376616e+00 0.0000000000000000e+00 0.0000000000000000e+00  1.0722670850085287e+00 0.0000000000000000e+00 0.0000000000000000e+00  1.0751297819149606e+00 0.0000000000000000e+00 0.0000000000000000e+00  1.0761781837293511e+00 0.0000000000000000e+00 0.0000000000000000e+00  1.0767628402038116e+00 0.0000000000000000e+00 0.0000000000000000e+00  1.0778435419610668e+00 0.0000000000000000e+00 0.0000000000000000e+00  1.0783867974004906e+00 0.0000000000000000e+00 0.0000000000000000e+00  1.0793478829659455e+00 0.0000000000000000e+00 0.0000000000000000e+00  1.0822313116875901e+00 0.0000000000000000e+00 0.0000000000000000e+00  1.0836464476750660e+00 0.0000000000000000e+00 0.0000000000000000e+00  1.0855604005414421e+00 0.0000000000000000e+00 0.0000000000000000e+00  1.0861955413119169e+00 0.0000000000000000e+00 0.0000000000000000e+00  1.0847737397490418e+00 0.0000000000000000e+00 0.0000000000000000e+00  1.0818624888096009e+00 0.0000000000000000e+00 0.0000000000000000e+00  1.0776494467578828e+00 0.0000000000000000e+00 0.0000000000000000e+00  1.0720182056972458e+00 0.0000000000000000e+00 0.0000000000000000e+00  1.0646279176200502e+00 0.0000000000000000e+00 0.0000000000000000e+00  1.0576174169550405e+00 0.0000000000000000e+00 0.0000000000000000e+00  1.0497286776784494e+00 0.0000000000000000e+00 0.0000000000000000e+00  1.0344703028672155e+00 0.0000000000000000e+00 0.0000000000000000e+00  1.0278407480849618e+00 0.0000000000000000e+00 0.0000000000000000e+00  1.0225686818406419e+00 0.0000000000000000e+00 0.0000000000000000e+00  1.0178231718642421e+00 0.0000000000000000e+00 0.0000000000000000e+00  1.0139471404737319e+00 0.0000000000000000e+00 0.0000000000000000e+00  1.0108786869129238e+00 0.0000000000000000e+00 0.0000000000000000e+00  1.0085257296848011e+00 0.0000000000000000e+00 0.0000000000000000e+00  1.0062383785741165e+00 0.0000000000000000e+00 0.0000000000000000e+00  1.0046108227866577e+00 0.0000000000000000e+00 0.0000000000000000e+00  1.0034399974589718e+00 0.0000000000000000e+00 0.0000000000000000e+00  1.0020933148174020e+00 0.0000000000000000e+00 0.0000000000000000e+00  1.0017810801787015e+00 0.0000000000000000e+00 0.0000000000000000e+00  1.0005704833637497e+00 0.0000000000000000e+00 0.0000000000000000e+00  1.0004219706223740e+00 0.0000000000000000e+00 0.0000000000000000e+00  9.9992208790406012e-01 0.0000000000000000e+00 0.0000000000000000e+00  1.0005353767799341e+00 0.0000000000000000e+00 0.0000000000000000e+00  1.0002599535331542e+00 0.0000000000000000e+00 0.0000000000000000e+00  9.9979763222113038e-01 0.0000000000000000e+00 0.0000000000000000e+00  1.0000001333372184e+00 0.0000000000000000e+00 0.0000000000000000e+00  1.0000001333372184e+00 0.0000000000000000e+00 0.0000000000000000e+00  1.0000001333372184e+00 0.0000000000000000e+00 0.0000000000000000e+00  1.0000001333372184e+00 0.0000000000000000e+00 0.0000000000000000e+00  1.0000001333372184e+00 0.0000000000000000e+00 0.0000000000000000e+00  1.0000001333372184e+00 0.0000000000000000e+00 0.0000000000000000e+00  1.0000001333372184e+00 0.0000000000000000e+00 0.0000000000000000e+00  1.0000001333372184e+00 0.0000000000000000e+00 0.0000000000000000e+00  1.0000001333372184e+00 0.0000000000000000e+00 0.0000000000000000e+00  1.0000001333372184e+00 0.0000000000000000e+00 0.0000000000000000e+00  1.0000001333372184e+00 0.0000000000000000e+00 0.0000000000000000e+00  1.0000001333372184e+00 0.0000000000000000e+00 0.0000000000000000e+00  1.0000001333372184e+00 0.0000000000000000e+00 0.0000000000000000e+00  1.0000001333372184e+00 0.0000000000000000e+00 0.0000000000000000e+00  1.0000001333372184e+00 0.0000000000000000e+00 0.0000000000000000e+00  1.0000001333372184e+00 0.0000000000000000e+00 0.0000000000000000e+00  1.0000001333372184e+00 0.0000000000000000e+00 0.0000000000000000e+00  1.0000001333372184e+00 0.0000000000000000e+00 0.0000000000000000e+00  1.0000001333372184e+00 0.0000000000000000e+00 0.0000000000000000e+00  1.0000001333372184e+00 0.0000000000000000e+00 0.0000000000000000e+00  1.0382148949830099e+00 -9.2781734876500061e-03 0.0000000000000000e+00  1.0350419351177533e+00 -1.8703825528629724e-02 0.0000000000000000e+00  1.0325537204602018e+00 -2.8766937887993373e-02 0.0000000000000000e+00  1.0265285684183763e+00 -3.9145577057506868e-02 0.0000000000000000e+00  1.0202725964413588e+00 -5.3242968390695006e-02 0.0000000000000000e+00  1.0244619445230796e+00 -5.6631475970732599e-02 0.0000000000000000e+00  1.0282527241205588e+00 -6.0108749063399344e-02 0.0000000000000000e+00  1.0330260788064978e+00 -6.3304624610202351e-02 0.0000000000000000e+00  1.0380389262352940e+00 -6.6375386891580138e-02 0.0000000000000000e+00  1.0436403676467747e+00 -6.9052929691405543e-02 0.0000000000000000e+00  1.0497850994883553e+00 -7.1409426600318529e-02 0.0000000000000000e+00  1.0563127643367769e+00 -7.3148922863973648e-02 0.0000000000000000e+00  1.0633105257149746e+00 -7.4379240719045697e-02 0.0000000000000000e+00  1.0703599378686148e+00 -7.4786282683016084e-02 0.0000000000000000e+00  1.0776724854413477e+00 -7.4625279557432284e-02 0.0000000000000000e+00  1.0849298526193834e+00 -7.3803591898701157e-02 0.0000000000000000e+00  1.0922187087818100e+00 -7.2019727906181122e-02 0.0000000000000000e+00  1.0990780419556108e+00 -6.9445121757118866e-02 0.0000000000000000e+00  1.1055796402393459e+00 -6.6370728244633109e-02 0.0000000000000000e+00  1.1116077063375958e+00 -6.2696642755281445e-02 0.0000000000000000e+00  1.1170218524812299e+00 -5.8571615672874756e-02 0.0000000000000000e+00  1.1218031854376458e+00 -5.4090184663739889e-02 0.0000000000000000e+00  1.1260573281925650e+00 -4.9489091306455797e-02 0.0000000000000000e+00  1.1297369904914942e+00 -4.4633878203085016e-02 0.0000000000000000e+00  1.1329476119727087e+00 -3.9980637084943101e-02 0.0000000000000000e+00  1.1357464354325639e+00 -3.5090468561593632e-02 0.0000000000000000e+00  1.1382075620641192e+00 -3.0277393038175959e-02 0.0000000000000000e+00  1.1405264256187335e+00 -2.5568597810088717e-02 0.0000000000000000e+00  1.1426495674815571e+00 -2.0826090968209962e-02 0.0000000000000000e+00  1.1446347452477590e+00 -1.5947988998081218e-02 0.0000000000000000e+00  1.1464907670425564e+00 -1.0778808223307693e-02 0.0000000000000000e+00  1.1481965499535296e+00 -5.3095548865144020e-03 0.0000000000000000e+00  1.1496103801569999e+00 6.3451591383440874e-04 0.0000000000000000e+00  1.1506834426128039e+00 7.0909770748388973e-03 0.0000000000000000e+00  1.1511847015597614e+00 1.4050505814283812e-02 0.0000000000000000e+00  1.1509854666986399e+00 2.1521622669888565e-02 0.0