<?xml version="1.0"?>
<VTKFile type="UnstructuredGrid"  version="0.1"  >
<UnstructuredGrid>
<Piece  NumberOfPoints="10199" NumberOfCells="20110">
<Points>
<DataArray  type="Float64"  NumberOfComponents="3"  format="ascii">0 -5 0  8 -5 0  30 -5 0  40 -5 0  40 5 0  30 5 0  8 5 0  0 5 0  8 -2.5 0  15 -2.5 0  30 -2.5 0  30 2.5 0  15 2.5 0  8 2.5 0  10 0.5 0  10 -0.5 0  0 0 0  0.4210526315780956 -5 0  0.8421052631563433 -5 0  1.263157894734281 -5 0  1.684210526311999 -5 0  2.105263157889717 -5 0  2.526315789467435 -5 0  2.947368421045153 -5 0  3.368421052622872 -5 0  3.78947368420059 -5 0  4.210526315779479 -5 0  4.631578947359537 -5 0  5.052631578939595 -5 0  5.473684210519653 -5 0  5.89473684209971 -5 0  6.315789473679768 -5 0  6.736842105259826 -5 0  7.157894736839884 -5 0  7.578947368419942 -5 0  8.407407407405314 -5 0  8.814814814810628 -5 0  9.222222222215942 -5 0  9.629629629621256 -5 0  10.03703703702657 -5 0  10.44444444443188 -5 0  10.8518518518372 -5 0  11.25925925924251 -5 0  11.66666666664783 -5 0  12.07407407405314 -5 0  12.48148148145846 -5 0  12.88888888886377 -5 0  13.29629629626908 -5 0  13.7037037036744 -5 0  14.11111111107971 -5 0  14.51851851848502 -5 0  14.92592592589034 -5 0  15.33333333329565 -5 0  15.74074074070096 -5 0  16.14814814810754 -5 0  16.55555555551614 -5 0  16.96296296292474 -5 0  17.37037037033335 -5 0  17.77777777774195 -5 0  18.18518518515056 -5 0  18.59259259255916 -5 0  18.99999999996776 -5 0  19.40740740737636 -5 0  19.81481481478497 -5 0  20.22222222219357 -5 0  20.62962962960217 -5 0  21.03703703701077 -5 0  21.44444444441937 -5 0  21.85185185182797 -5 0  22.25925925923657 -5 0  22.66666666664518 -5 0  23.07407407405378 -5 0  23.48148148146238 -5 0  23.88888888887098 -5 0  24.29629629627958 -5 0  24.70370370368818 -5 0  25.11111111109678 -5 0  25.51851851850539 -5 0  25.92592592591399 -5 0  26.33333333332259 -5 0  26.74074074073119 -5 0  27.14814814813979 -5 0  27.55555555554839 -5 0  27.96296296295699 -5 0  28.3703703703656 -5 0  28.7777777777742 -5 0  29.1851851851828 -5 0  29.5925925925914 -5 0  30.41666666667852 -5 0  30.83333333335704 -5 0  31.25000000003556 -5 0  31.66666666671408 -5 0  32.08333333338936 -5 0  32.50000000005308 -5 0  32.9166666667168 -5 0  33.33333333338052 -5 0  33.75000000004424 -5 0  34.16666666670795 -5 0  34.58333333337167 -5 0  35.00000000003539 -5 0  35.41666666669911 -5 0  35.83333333336282 -5 0  36.25000000002654 -5 0  36.66666666669026 -5 0  37.08333333335398 -5 0  37.50000000001769 -5 0  37.91666666668141 -5 0  38.33333333334513 -5 0  38.75000000000885 -5 0  39.16666666667257 -5 0  39.58333333333628 -5 0  40 -4.583333333332821 0  40 -4.166666666665642 0  40 -3.74999999999855 0  40 -3.333333333333135 0  40 -2.916666666667806 0  40 -2.500000000002478 0  40 -2.083333333337148 0  40 -1.666666666671818 0  40 -1.250000000006488 0  40 -0.8333333333405228 0  40 -0.4166666666733416 0  40 -6.163070054299169e-12 0  40 0.4166666666610173 0  40 0.8333333333281976 0  40 1.249999999995378 0  40 1.666666666662558 0  40 2.083333333329739 0  40 2.499999999996919 0  40 2.916666666664099 0  40 3.33333333333128 0  40 3.74999999999846 0  40 4.166666666665641 0  40 4.583333333332821 0  39.58333333333628 5 0  39.16666666667256 5 0  38.75000000000885 5 0  38.33333333334513 5 0  37.91666666668141 5 0  37.50000000001769 5 0  37.08333333335398 5 0  36.66666666669025 5 0  36.25000000002654 5 0  35.83333333336282 5 0  35.41666666669911 5 0  35.00000000003539 5 0  34.58333333337167 5 0  34.16666666670795 5 0  33.75000000004424 5 0  33.33333333338052 5 0  32.9166666667168 5 0  32.50000000005308 5 0  32.08333333338936 5 0  31.66666666671408 5 0  31.25000000003556 5 0  30.83333333335704 5 0  30.41666666667852 5 0  29.59259259259259 5 0  29.18518518518519 5 0  28.77777777777778 5 0  28.37037037037037 5 0  27.96296296296296 5 0  27.55555555555556 5 0  27.14814814814815 5 0  26.74074074074074 5 0  26.33333333333333 5 0  25.92592592592593 5 0  25.51851851851852 5 0  25.11111111111111 5 0  24.7037037037037 5 0  24.2962962962963 5 0  23.88888888888889 5 0  23.48148148148148 5 0  23.07407407407408 5 0  22.66666666666667 5 0  22.25925925925926 5 0  21.85185185185185 5 0  21.44444444444445 5 0  21.03703703703704 5 0  20.62962962962963 5 0  20.22222222222222 5 0  19.81481481481482 5 0  19.40740740740741 5 0  19 5 0  18.5925925925926 5 0  18.18518518518519 5 0  17.77777777777778 5 0  17.37037037037037 5 0  16.96296296296296 5 0  16.55555555555556 5 0  16.14814814814815 5 0  15.74074074074074 5 0  15.33333333333333 5 0  14.92592592592593 5 0  14.51851851851852 5 0  14.11111111111111 5 0  13.70370370370371 5 0  13.2962962962963 5 0  12.88888888888889 5 0  12.48148148148148 5 0  12.07407407407408 5 0  11.66666666666667 5 0  11.25925925925926 5 0  10.85185185185185 5 0  10.44444444444445 5 0  10.03703703703704 5 0  9.629629629629633 5 0  9.222222222222221 5 0  8.814814814814817 5 0  8.407407407407408 5 0  7.5789473684193 5 0  7.157894736838599 5 0  6.73684210526082 5 0  6.315789473684795 5 0  5.894736842108769 5 0  5.473684210532742 5 0  5.052631578956715 5 0  4.631578947380689 5 0  4.210526315804662 5 0  3.789473684226299 5 0  3.368421052645599 5 0  2.947368421064898 5 0  2.526315789484198 5 0  2.105263157903499 5 0  1.6842105263228 5 0  1.2631578947421 5 0  0.8421052631613994 5 0  0.4210526315806993 5 0  0 4.545454545454545 0  0 4.09090909090909 0  0 3.636363636363634 0  0 3.18181818181818 0  0 2.727272727272726 0  0 2.272727272727271 0  0 1.818181818181817 0  0 1.363636363636363 0  0 0.9090909090909092 0  0 0.454545454545455 0  0 -0.4545454545450807 0  0 -0.9090909090895867 0  0 -1.363636363633713 0  0 -1.818181818177841 0  0 -2.272727272723127 0  0 -2.727272727269273 0  0 -3.181818181815419 0  0 -3.636363636361564 0  0 -4.090909090907709 0  0 -4.545454545453855 0  8 -4.499999999999999 0  8 -3.999999999999999 0  8 -3.499999999999999 0  8 -3 0  8.137254901963859 -2.5 0  8.274509803926303 -2.5 0  8.411764705886863 -2.5 0  8.549019607849138 -2.5 0  8.686274509809513 -2.5 0  8.82352941176989 -2.5 0  8.960784313730265 -2.5 0  9.098039215690642 -2.5 0  9.235294117651017 -2.5 0  9.372549019611395 -2.5 0  9.50980392157177 -2.5 0  9.647058823532147 -2.5 0  9.784313725492522 -2.5 0  9.921568627452897 -2.5 0  10.05882352941327 -2.5 0  10.19607843137365 -2.5 0  10.33333333333402 -2.5 0  10.4705882352944 -2.5 0  10.60784313725478 -2.5 0  10.74509803921515 -2.5 0  10.88235294117553 -2.5 0  11.0196078431359 -2.5 0  11.15686274509628 -2.5 0  11.29411764705665 -2.5 0  11.43137254901703 -2.5 0  11.56862745097915 -2.5 0  11.70588235294301 -2.5 0  11.84313725490686 -2.5 0  11.98039215687072 -2.5 0  12.11764705883209 -2.5 0  12.25490196079247 -2.5 0  12.39215686275285 -2.5 0  12.52941176471322 -2.5 0  12.6666666666736 -2.5 0  12.80392156863397 -2.5 0  12.94117647059435 -2.5 0  13.07843137255473 -2.5 0  13.2156862745151 -2.5 0  13.35294117647548 -2.5 0  13.49019607843586 -2.5 0  13.62745098039623 -2.5 0  13.76470588235661 -2.5 0  13.90196078431699 -2.5 0  14.03921568627736 -2.5 0  14.17647058823774 -2.5 0  14.31372549019812 -2.5 0  14.45098039215849 -2.5 0  14.58823529411887 -2.5 0  14.72549019607925 -2.5 0  14.86274509803962 -2.5 0  15.20270270270254 -2.5 0  15.40540540540509 -2.5 0  15.60810810810763 -2.5 0  15.81081081081017 -2.5 0  16.01351351351227 -2.5 0  16.21621621621265 -2.5 0  16.41891891891279 -2.5 0  16.62162162161294 -2.5 0  16.82432432431308 -2.5 0  17.02702702701322 -2.5 0  17.22972972971337 -2.5 0  17.43243243241351 -2.5 0  17.63513513511365 -2.5 0  17.83783783781379 -2.5 0  18.04054054051394 -2.5 0  18.24324324321408 -2.5 0  18.44594594591422 -2.5 0  18.64864864861436 -2.5 0  18.85135135131451 -2.5 0  19.05405405401465 -2.5 0  19.25675675671479 -2.5 0  19.45945945941494 -2.5 0  19.66216216211508 -2.5 0  19.86486486481522 -2.5 0  20.06756756751536 -2.5 0  20.27027027021551 -2.5 0  20.47297297291565 -2.5 0  20.6756756756158 -2.5 0  20.87837837831594 -2.5 0  21.08108108101608 -2.5 0  21.28378378371622 -2.5 0  21.48648648641637 -2.5 0  21.68918918911651 -2.5 0  21.89189189181666 -2.5 0  22.0945945945168 -2.5 0  22.29729729721694 -2.5 0  22.49999999991778 -2.5 0  22.70270270262203 -2.5 0  22.90540540532697 -2.5 0  23.10810810803191 -2.5 0  23.31081081073686 -2.5 0  23.5135135134418 -2.5 0  23.71621621614674 -2.5 0  23.91891891885169 -2.5 0  24.12162162155663 -2.5 0  24.32432432426158 -2.5 0  24.52702702696652 -2.5 0  24.72972972967146 -2.5 0  24.93243243237641 -2.5 0  25.13513513508135 -2.5 0  25.3378378377863 -2.5 0  25.54054054049124 -2.5 0  25.74324324319618 -2.5 0  25.94594594590112 -2.5 0  26.14864864860607 -2.5 0  26.35135135131101 -2.5 0  26.55405405401596 -2.5 0  26.7567567567209 -2.5 0  26.95945945942584 -2.5 0  27.16216216213079 -2.5 0  27.36486486483573 -2.5 0  27.56756756754068 -2.5 0  27.77027027024562 -2.5 0  27.97297297295056 -2.5 0  28.1756756756555 -2.5 0  28.37837837836045 -2.5 0  28.5810810810654 -2.5 0  28.78378378377034 -2.5 0  28.98648648647528 -2.5 0  29.18918918918023 -2.5 0  29.39189189188517 -2.5 0  29.59459459459011 -2.5 0  29.79729729729506 -2.5 0  30 -3.000000000000001 0  30 -3.500000000000001 0  30 -4.000000000000001 0  30 -4.5 0  8 4.499999999999999 0  8 3.999999999999999 0  8 3.499999999999999 0  8 3 0  8.137254901963859 2.5 0  8.274509803926303 2.5 0  8.411764705886863 2.5 0  8.549019607849138 2.5 0  8.686274509809513 2.5 0  8.82352941176989 2.5 0  8.960784313730265 2.5 0  9.098039215690642 2.5 0  9.235294117651017 2.5 0  9.372549019611395 2.5 0  9.50980392157177 2.5 0  9.647058823532147 2.5 0  9.784313725492522 2.5 0  9.921568627452897 2.5 0  10.05882352941327 2.5 0  10.19607843137365 2.5 0  10.33333333333402 2.5 0  10.4705882352944 2.5 0  10.60784313725478 2.5 0  10.74509803921515 2.5 0  10.88235294117553 2.5 0  11.0196078431359 2.5 0  11.15686274509628 2.5 0  11.29411764705665 2.5 0  11.43137254901703 2.5 0  11.56862745097915 2.5 0  11.70588235294301 2.5 0  11.84313725490686 2.5 0  11.98039215687072 2.5 0  12.11764705883209 2.5 0  12.25490196079247 2.5 0  1
[...]
<PointData  Vectors="f_17"> 
<DataArray  type="Float64"  Name="f_17"  NumberOfComponents="3" format="ascii">1.0000001300541697e+00 0.0000000000000000e+00 0.0000000000000000e+00  1.0408809122486122e+00 0.0000000000000000e+00 0.0000000000000000e+00  1.0496849459171060e+00 0.0000000000000000e+00 0.0000000000000000e+00  1.0731610276368742e+00 0.0000000000000000e+00 0.0000000000000000e+00  1.0941379203277295e+00 0.0000000000000000e+00 0.0000000000000000e+00  1.0648644364125324e+00 0.0000000000000000e+00 0.0000000000000000e+00  1.0400057229315871e+00 0.0000000000000000e+00 0.0000000000000000e+00  1.0000001300541697e+00 0.0000000000000000e+00 0.0000000000000000e+00  1.0194696803359262e+00 -5.1737685801778358e-02 0.0000000000000000e+00  1.0122894953930597e+00 -4.2457525507721243e-02 0.0000000000000000e+00  9.8636162906313818e-01 4.4251665905149628e-03 0.0000000000000000e+00  1.1533217158877480e+00 -2.1595438210946850e-04 0.0000000000000000e+00  1.0898401699604030e+00 -8.5576348653550280e-02 0.0000000000000000e+00  1.0233380639995184e+00 4.9894297085710561e-02 0.0000000000000000e+00  0.0000000000000000e+00 0.0000000000000000e+00 0.0000000000000000e+00  0.0000000000000000e+00 0.0000000000000000e+00 0.0000000000000000e+00  1.0000001300541697e+00 0.0000000000000000e+00 0.0000000000000000e+00  9.9927390104659486e-01 0.0000000000000000e+00 0.0000000000000000e+00  9.9864856368465360e-01 0.0000000000000000e+00 0.0000000000000000e+00  1.0006436632971261e+00 0.0000000000000000e+00 0.0000000000000000e+00  1.0003527905260563e+00 0.0000000000000000e+00 0.0000000000000000e+00  1.0012214774747308e+00 0.0000000000000000e+00 0.0000000000000000e+00  1.0014365911246716e+00 0.0000000000000000e+00 0.0000000000000000e+00  1.0016657072640669e+00 0.0000000000000000e+00 0.0000000000000000e+00  1.0024605942675706e+00 0.0000000000000000e+00 0.0000000000000000e+00  1.0036515507041628e+00 0.0000000000000000e+00 0.0000000000000000e+00  1.0047870010576792e+00 0.0000000000000000e+00 0.0000000000000000e+00  1.0062330307444345e+00 0.0000000000000000e+00 0.0000000000000000e+00  1.0084695391472858e+00 0.0000000000000000e+00 0.0000000000000000e+00  1.0107722636605820e+00 0.0000000000000000e+00 0.0000000000000000e+00  1.0146130848845467e+00 0.0000000000000000e+00 0.0000000000000000e+00  1.0162492142803472e+00 0.0000000000000000e+00 0.0000000000000000e+00  1.0207017184859135e+00 0.0000000000000000e+00 0.0000000000000000e+00  1.0273864468253302e+00 0.0000000000000000e+00 0.0000000000000000e+00  1.0328092018809871e+00 0.0000000000000000e+00 0.0000000000000000e+00  1.0491105597138259e+00 0.0000000000000000e+00 0.0000000000000000e+00  1.0578854044125037e+00 0.0000000000000000e+00 0.0000000000000000e+00  1.0661835128227821e+00 0.0000000000000000e+00 0.0000000000000000e+00  1.0749602616106542e+00 0.0000000000000000e+00 0.0000000000000000e+00  1.0820382536060369e+00 0.0000000000000000e+00 0.0000000000000000e+00  1.0880431438044127e+00 0.0000000000000000e+00 0.0000000000000000e+00  1.0929826661499591e+00 0.0000000000000000e+00 0.0000000000000000e+00  1.0944976337483814e+00 0.0000000000000000e+00 0.0000000000000000e+00  1.0942660385449903e+00 0.0000000000000000e+00 0.0000000000000000e+00  1.0915634216069383e+00 0.0000000000000000e+00 0.0000000000000000e+00  1.0874230194526924e+00 0.0000000000000000e+00 0.0000000000000000e+00  1.0811257820363234e+00 0.0000000000000000e+00 0.0000000000000000e+00  1.0756365607203211e+00 0.0000000000000000e+00 0.0000000000000000e+00  1.0705124073064611e+00 0.0000000000000000e+00 0.0000000000000000e+00  1.0665846499799025e+00 0.0000000000000000e+00 0.0000000000000000e+00  1.0647622858210224e+00 0.0000000000000000e+00 0.0000000000000000e+00  1.0645642324871076e+00 0.0000000000000000e+00 0.0000000000000000e+00  1.0657745213261267e+00 0.0000000000000000e+00 0.0000000000000000e+00  1.0671737195249624e+00 0.0000000000000000e+00 0.0000000000000000e+00  1.0677535413124668e+00 0.0000000000000000e+00 0.0000000000000000e+00  1.0681270192547871e+00 0.0000000000000000e+00 0.0000000000000000e+00  1.0668759117700966e+00 0.0000000000000000e+00 0.0000000000000000e+00  1.0624167056853517e+00 0.0000000000000000e+00 0.0000000000000000e+00  1.0572411867829705e+00 0.0000000000000000e+00 0.0000000000000000e+00  1.0511545545932062e+00 0.0000000000000000e+00 0.0000000000000000e+00  1.0453336526528569e+00 0.0000000000000000e+00 0.0000000000000000e+00  1.0412332684336834e+00 0.0000000000000000e+00 0.0000000000000000e+00  1.0388179329253813e+00 0.0000000000000000e+00 0.0000000000000000e+00  1.0389398752236771e+00 0.0000000000000000e+00 0.0000000000000000e+00  1.0419082280633132e+00 0.0000000000000000e+00 0.0000000000000000e+00  1.0459907454551902e+00 0.0000000000000000e+00 0.0000000000000000e+00  1.0508849310184116e+00 0.0000000000000000e+00 0.0000000000000000e+00  1.0571660890918679e+00 0.0000000000000000e+00 0.0000000000000000e+00  1.0610241537054954e+00 0.0000000000000000e+00 0.0000000000000000e+00  1.0625502314911985e+00 0.0000000000000000e+00 0.0000000000000000e+00  1.0625245885790884e+00 0.0000000000000000e+00 0.0000000000000000e+00  1.0595327991914953e+00 0.0000000000000000e+00 0.0000000000000000e+00  1.0549543869048099e+00 0.0000000000000000e+00 0.0000000000000000e+00  1.0515023440115785e+00 0.0000000000000000e+00 0.0000000000000000e+00  1.0478176393124210e+00 0.0000000000000000e+00 0.0000000000000000e+00  1.0456108368704888e+00 0.0000000000000000e+00 0.0000000000000000e+00  1.0462158593705839e+00 0.0000000000000000e+00 0.0000000000000000e+00  1.0481360989005497e+00 0.0000000000000000e+00 0.0000000000000000e+00  1.0516280221639467e+00 0.0000000000000000e+00 0.0000000000000000e+00  1.0566484543427395e+00 0.0000000000000000e+00 0.0000000000000000e+00  1.0605747071814766e+00 0.0000000000000000e+00 0.0000000000000000e+00  1.0629848716644212e+00 0.0000000000000000e+00 0.0000000000000000e+00  1.0660721068969206e+00 0.0000000000000000e+00 0.0000000000000000e+00  1.0650488620314345e+00 0.0000000000000000e+00 0.0000000000000000e+00  1.0605553639897118e+00 0.0000000000000000e+00 0.0000000000000000e+00  1.0561262232756539e+00 0.0000000000000000e+00 0.0000000000000000e+00  1.0533213226073224e+00 0.0000000000000000e+00 0.0000000000000000e+00  1.0504076885392037e+00 0.0000000000000000e+00 0.0000000000000000e+00  1.0505166566587958e+00 0.0000000000000000e+00 0.0000000000000000e+00  1.0523809458090672e+00 0.0000000000000000e+00 0.0000000000000000e+00  1.0555399655230675e+00 0.0000000000000000e+00 0.0000000000000000e+00  1.0598686056534705e+00 0.0000000000000000e+00 0.0000000000000000e+00  1.0636846441171235e+00 0.0000000000000000e+00 0.0000000000000000e+00  1.0656161723045350e+00 0.0000000000000000e+00 0.0000000000000000e+00  1.0656924647614923e+00 0.0000000000000000e+00 0.0000000000000000e+00  1.0642512450361541e+00 0.0000000000000000e+00 0.0000000000000000e+00  1.0614794838820705e+00 0.0000000000000000e+00 0.0000000000000000e+00  1.0578123642992872e+00 0.0000000000000000e+00 0.0000000000000000e+00  1.0550993219966822e+00 0.0000000000000000e+00 0.0000000000000000e+00  1.0537494225840314e+00 0.0000000000000000e+00 0.0000000000000000e+00  1.0539975849513208e+00 0.0000000000000000e+00 0.0000000000000000e+00  1.0567800580650828e+00 0.0000000000000000e+00 0.0000000000000000e+00  1.0610251875888106e+00 0.0000000000000000e+00 0.0000000000000000e+00  1.0665532135841405e+00 0.0000000000000000e+00 0.0000000000000000e+00  1.0708531734667794e+00 0.0000000000000000e+00 0.0000000000000000e+00  1.0745630382800269e+00 0.0000000000000000e+00 0.0000000000000000e+00  1.0762228032229935e+00 0.0000000000000000e+00 0.0000000000000000e+00  1.0769003159894455e+00 0.0000000000000000e+00 0.0000000000000000e+00  1.0756186380121842e+00 0.0000000000000000e+00 0.0000000000000000e+00  1.0744596876580563e+00 0.0000000000000000e+00 0.0000000000000000e+00  1.0727916755298599e+00 0.0000000000000000e+00 0.0000000000000000e+00  1.0728916439440879e+00 -7.1643954868040908e-04 0.0000000000000000e+00  1.0710712285354043e+00 -1.0410732717405307e-03 0.0000000000000000e+00  1.0668615109895516e+00 -2.7319661253826205e-04 0.0000000000000000e+00  1.0566924868512515e+00 2.5127940108985495e-03 0.0000000000000000e+00  1.0399080260794782e+00 7.5952050253954026e-03 0.0000000000000000e+00  1.0115721692237067e+00 1.7636313406919291e-02 0.0000000000000000e+00  9.6968149370333412e-01 2.9051937368231369e-02 0.0000000000000000e+00  9.1462668760859689e-01 4.2326874532885903e-02 0.0000000000000000e+00  8.5084916108271302e-01 4.7091565956851565e-02 0.0000000000000000e+00  7.8572950104300809e-01 3.8942262604063173e-02 0.0000000000000000e+00  7.3044409875914507e-01 3.5539309854675460e-02 0.0000000000000000e+00  7.0757645117992241e-01 4.4263011182106876e-02 0.0000000000000000e+00  7.4498071811717292e-01 6.7700450547221652e-02 0.0000000000000000e+00  8.5108568652417638e-01 9.4139551527762738e-02 0.0000000000000000e+00  9.9183612209102523e-01 1.2429143587274209e-01 0.0000000000000000e+00  1.1142930552655275e+00 1.2771262534654323e-01 0.0000000000000000e+00  1.1770463911111049e+00 1.0846557753680679e-01 0.0000000000000000e+00  1.1807672906435629e+00 8.2289088181752318e-02 0.0000000000000000e+00  1.1543689857051918e+00 5.4917741248548237e-02 0.0000000000000000e+00  1.1270532900006494e+00 3.4578992167456704e-02 0.0000000000000000e+00  1.1097822897889629e+00 2.1358560590289545e-02 0.0000000000000000e+00  1.1012379745970875e+00 1.2565758170291456e-02 0.0000000000000000e+00  1.0961834577904468e+00 5.6673623585796421e-03 0.0000000000000000e+00  1.0874568404339238e+00 0.0000000000000000e+00 0.0000000000000000e+00  1.0798002227722625e+00 0.0000000000000000e+00 0.0000000000000000e+00  1.0721026175029440e+00 0.0000000000000000e+00 0.0000000000000000e+00  1.0661423957666509e+00 0.0000000000000000e+00 0.0000000000000000e+00  1.0616702223613861e+00 0.0000000000000000e+00 0.0000000000000000e+00  1.0601187324197183e+00 0.0000000000000000e+00 0.0000000000000000e+00  1.0608179376213667e+00 0.0000000000000000e+00 0.0000000000000000e+00  1.0633512657943185e+00 0.0000000000000000e+00 0.0000000000000000e+00  1.0656766833884512e+00 0.0000000000000000e+00 0.0000000000000000e+00  1.0679449212510732e+00 0.0000000000000000e+00 0.0000000000000000e+00  1.0687398787404079e+00 0.0000000000000000e+00 0.0000000000000000e+00  1.0677571144225411e+00 0.0000000000000000e+00 0.0000000000000000e+00  1.0649918593628844e+00 0.0000000000000000e+00 0.0000000000000000e+00  1.0617100931882462e+00 0.0000000000000000e+00 0.0000000000000000e+00  1.0570464288114227e+00 0.0000000000000000e+00 0.0000000000000000e+00  1.0539960895497871e+00 0.0000000000000000e+00 0.0000000000000000e+00  1.0509304311065930e+00 0.0000000000000000e+00 0.0000000000000000e+00  1.0503645704955606e+00 0.0000000000000000e+00 0.0000000000000000e+00  1.0515856818821601e+00 0.0000000000000000e+00 0.0000000000000000e+00  1.0550231121318816e+00 0.0000000000000000e+00 0.0000000000000000e+00  1.0588226942047565e+00 0.0000000000000000e+00 0.0000000000000000e+00  1.0621163079222598e+00 0.0000000000000000e+00 0.0000000000000000e+00  1.0645358586573248e+00 0.0000000000000000e+00 0.0000000000000000e+00  1.0625829296279481e+00 0.0000000000000000e+00 0.0000000000000000e+00  1.0593320583610828e+00 0.0000000000000000e+00 0.0000000000000000e+00  1.0543535033429525e+00 0.0000000000000000e+00 0.0000000000000000e+00  1.0509673346044071e+00 0.0000000000000000e+00 0.0000000000000000e+00  1.0494421966872978e+00 0.0000000000000000e+00 0.0000000000000000e+00  1.0484740298914939e+00 0.0000000000000000e+00 0.0000000000000000e+00  1.0475689552966700e+00 0.0000000000000000e+00 0.0000000000000000e+00  1.0506775890489655e+00 0.0000000000000000e+00 0.0000000000000000e+00  1.0548993274231762e+00 0.0000000000000000e+00 0.0000000000000000e+00  1.0585818770478068e+00 0.0000000000000000e+00 0.0000000000000000e+00  1.0620810972572499e+00 0.0000000000000000e+00 0.0000000000000000e+00  1.0638716409279312e+00 0.0000000000000000e+00 0.0000000000000000e+00  1.0627460970018601e+00 0.0000000000000000e+00 0.0000000000000000e+00  1.0601631500194590e+00 0.0000000000000000e+00 0.0000000000000000e+00  1.0557151622632051e+00 0.0000000000000000e+00 0.0000000000000000e+00  1.0496896750268938e+00 0.0000000000000000e+00 0.0000000000000000e+00  1.0453596591527683e+00 0.0000000000000000e+00 0.0000000000000000e+00  1.0423537585560720e+00 0.0000000000000000e+00 0.0000000000000000e+00  1.0404814005050278e+00 0.0000000000000000e+00 0.0000000000000000e+00  1.0419331148073627e+00 0.0000000000000000e+00 0.0000000000000000e+00  1.0452812157447127e+00 0.0000000000000000e+00 0.0000000000000000e+00  1.0489957391702385e+00 0.0000000000000000e+00 0.0000000000000000e+00  1.0545196751042234e+00 0.0000000000000000e+00 0.0000000000000000e+00  1.0592933354763094e+00 0.0000000000000000e+00 0.0000000000000000e+00  1.0615805807339498e+00 0.0000000000000000e+00 0.0000000000000000e+00  1.0619535115293994e+00 0.0000000000000000e+00 0.0000000000000000e+00  1.0600160601877884e+00 0.0000000000000000e+00 0.0000000000000000e+00  1.0558033986112627e+00 0.0000000000000000e+00 0.0000000000000000e+00  1.0511278825065096e+00 0.0000000000000000e+00 0.0000000000000000e+00  1.0467129585260060e+00 0.0000000000000000e+00 0.0000000000000000e+00  1.0434177598379786e+00 0.0000000000000000e+00 0.0000000000000000e+00  1.0429998282682227e+00 0.0000000000000000e+00 0.0000000000000000e+00  1.0438954966244594e+00 0.0000000000000000e+00 0.0000000000000000e+00  1.0475830315605728e+00 0.0000000000000000e+00 0.0000000000000000e+00  1.0538823884733641e+00 0.0000000000000000e+00 0.0000000000000000e+00  1.0612429750280907e+00 0.0000000000000000e+00 0.0000000000000000e+00  1.0683762448592007e+00 0.0000000000000000e+00 0.0000000000000000e+00  1.0746365233413036e+00 0.0000000000000000e+00 0.0000000000000000e+00  1.0802472850348437e+00 0.0000000000000000e+00 0.0000000000000000e+00  1.0852907539393180e+00 0.0000000000000000e+00 0.0000000000000000e+00  1.0881910998942725e+00 0.0000000000000000e+00 0.0000000000000000e+00  1.0896837974119109e+00 0.0000000000000000e+00 0.0000000000000000e+00  1.0915706907274609e+00 0.0000000000000000e+00 0.0000000000000000e+00  1.0909582239659741e+00 0.0000000000000000e+00 0.0000000000000000e+00  1.0904248066252613e+00 0.0000000000000000e+00 0.0000000000000000e+00  1.0886506137261387e+00 0.0000000000000000e+00 0.0000000000000000e+00  1.0851989339109209e+00 0.0000000000000000e+00 0.0000000000000000e+00  1.0808129379717235e+00 0.0000000000000000e+00 0.0000000000000000e+00  1.0756672905625944e+00 0.0000000000000000e+00 0.0000000000000000e+00  1.0695704439722755e+00 0.0000000000000000e+00 0.0000000000000000e+00  1.0620802457376959e+00 0.0000000000000000e+00 0.0000000000000000e+00  1.0551513084216886e+00 0.0000000000000000e+00 0.0000000000000000e+00  1.0474634538586904e+00 0.0000000000000000e+00 0.0000000000000000e+00  1.0326991780362029e+00 0.0000000000000000e+00 0.0000000000000000e+00  1.0262553774246381e+00 0.0000000000000000e+00 0.0000000000000000e+00  1.0211195100063613e+00 0.0000000000000000e+00 0.0000000000000000e+00  1.0164746425342535e+00 0.0000000000000000e+00 0.0000000000000000e+00  1.0126897621574114e+00 0.0000000000000000e+00 0.0000000000000000e+00  1.0097078431070747e+00 0.0000000000000000e+00 0.0000000000000000e+00  1.0074642499122730e+00 0.0000000000000000e+00 0.0000000000000000e+00  1.0053191449526093e+00 0.0000000000000000e+00 0.0000000000000000e+00  1.0038518266900507e+00 0.0000000000000000e+00 0.0000000000000000e+00  1.0028766034872330e+00 0.0000000000000000e+00 0.0000000000000000e+00  1.0017256748085617e+00 0.0000000000000000e+00 0.0000000000000000e+00  1.0015806870846178e+00 0.0000000000000000e+00 0.0000000000000000e+00  1.0005129196771372e+00 0.0000000000000000e+00 0.0000000000000000e+00  1.0004668365620579e+00 0.0000000000000000e+00 0.0000000000000000e+00  9.9999851245729365e-01 0.0000000000000000e+00 0.0000000000000000e+00  1.0006176816856804e+00 0.0000000000000000e+00 0.0000000000000000e+00  1.0003077054043878e+00 0.0000000000000000e+00 0.0000000000000000e+00  9.9980703525441939e-01 0.0000000000000000e+00 0.0000000000000000e+00  1.0000001300541697e+00 0.0000000000000000e+00 0.0000000000000000e+00  1.0000001300541697e+00 0.0000000000000000e+00 0.0000000000000000e+00  1.0000001300541697e+00 0.0000000000000000e+00 0.0000000000000000e+00  1.0000001300541697e+00 0.0000000000000000e+00 0.0000000000000000e+00  1.0000001300541697e+00 0.0000000000000000e+00 0.0000000000000000e+00  1.0000001300541697e+00 0.0000000000000000e+00 0.0000000000000000e+00  1.0000001300541697e+00 0.0000000000000000e+00 0.0000000000000000e+00  1.0000001300541697e+00 0.0000000000000000e+00 0.0000000000000000e+00  1.0000001300541697e+00 0.0000000000000000e+00 0.0000000000000000e+00  1.0000001300541697e+00 0.0000000000000000e+00 0.0000000000000000e+00  1.0000001300541697e+00 0.0000000000000000e+00 0.0000000000000000e+00  1.0000001300541697e+00 0.0000000000000000e+00 0.0000000000000000e+00  1.0000001300541697e+00 0.0000000000000000e+00 0.0000000000000000e+00  1.0000001300541697e+00 0.0000000000000000e+00 0.0000000000000000e+00  1.0000001300541697e+00 0.0000000000000000e+00 0.0000000000000000e+00  1.0000001300541697e+00 0.0000000000000000e+00 0.0000000000000000e+00  1.0000001300541697e+00 0.0000000000000000e+00 0.0000000000000000e+00  1.0000001300541697e+00 0.0000000000000000e+00 0.0000000000000000e+00  1.0000001300541697e+00 0.0000000000000000e+00 0.0000000000000000e+00  1.0000001300541697e+00 0.0000000000000000e+00 0.0000000000000000e+00  1.0402417011117717e+00 -9.5958412540936081e-03 0.0000000000000000e+00  1.0371103903498662e+00 -1.9358540874556216e-02 0.0000000000000000e+00  1.0346430046423047e+00 -2.9775925413363331e-02 0.0000000000000000e+00  1.0285302550959732e+00 -4.0704292111127291e-02 0.0000000000000000e+00  1.0221118723065672e+00 -5.5667746004490183e-02 0.0000000000000000e+00  1.0264598237275440e+00 -5.9275457508915656e-02 0.0000000000000000e+00  1.0304770061033315e+00 -6.2966347357902977e-02 0.0000000000000000e+00  1.0355000399993952e+00 -6.6389810791288945e-02 0.0000000000000000e+00  1.0408247134428446e+00 -6.9674754000185787e-02 0.0000000000000000e+00  1.0467895942426582e+00 -7.2574145048695984e-02 0.0000000000000000e+00  1.0533543794527465e+00 -7.5122392787685274e-02 0.0000000000000000e+00  1.0604025158655261e+00 -7.7028302561394285e-02 0.0000000000000000e+00  1.0679784224417954e+00 -7.8397209930049880e-02 0.0000000000000000e+00  1.0757356828642424e+00 -7.8893284036006733e-02 0.0000000000000000e+00  1.0838481910492381e+00 -7.8727222023633733e-02 0.0000000000000000e+00  1.0920581039373940e+00 -7.7765987625544805e-02 0.0000000000000000e+00  1.1003837669652607e+00 -7.5732108694755218e-02 0.0000000000000000e+00  1.1084053833463772e+00 -7.2744638493856775e-02 0.0000000000000000e+00  1.1161985445799416e+00 -6.8989660851571752e-02 0.0000000000000000e+00  1.1236117900973877e+00 -6.4365338532112945e-02 0.0000000000000000e+00  1.1304327887487762e+00 -5.8900403960873433e-02 0.0000000000000000e+00  1.1366750798797420e+00 -5.2725754964426268e-02 0.0000000000000000e+00  1.1422086033271133e+00 -4.5936571721786452e-02 0.0000000000000000e+00  1.1470267079914980e+00 -3.8426139993308801e-02 0.0000000000000000e+00  1.1510507473914262e+00 -3.0586273097082010e-02 0.0000000000000000e+00  1.1542455283350779e+00 -2.2160496666394379e-02 0.0000000000000000e+00  1.1564139232900978e+00 -1.3303174121582101e-02 0.0000000000000000e+00  1.1577577401216217e+00 -4.2041093080109710e-03 0.0000000000000000e+00  1.1579363958343938e+00 5.0798411040567518e-03 0.0000000000000000e+00  1.1570550148285668e+00 1.4514407405421736e-02 0.0000000000000000e+00  1.1549770365376499e+00 2.3936243200527313e-02 0.0000000000000000e+00  1.1516531773002188e+00 3.3104025297731876e-02 0.0000000000000000e+00  1.1471404249623347e+00 4.2046208389637567e-02 0.0000000000000000e+00  1.1413484960860703e+00 5.0544319791704075e-02 0.0000000000000000e+00  1.1344121173704369e+00 5.8285961201073530e-02 0.0000000000000000e+00  1.1263682282637153e+00 6.5150962306269863e-02 0