<?xml version="1.0"?>
<VTKFile type="UnstructuredGrid"  version="0.1"  >
<UnstructuredGrid>
<Piece  NumberOfPoints="10199" NumberOfCells="20110">
<Points>
<DataArray  type="Float64"  NumberOfComponents="3"  format="ascii">0 -5 0  8 -5 0  30 -5 0  40 -5 0  40 5 0  30 5 0  8 5 0  0 5 0  8 -2.5 0  15 -2.5 0  30 -2.5 0  30 2.5 0  15 2.5 0  8 2.5 0  10 0.5 0  10 -0.5 0  0 0 0  0.4210526315780956 -5 0  0.8421052631563433 -5 0  1.263157894734281 -5 0  1.684210526311999 -5 0  2.105263157889717 -5 0  2.526315789467435 -5 0  2.947368421045153 -5 0  3.368421052622872 -5 0  3.78947368420059 -5 0  4.210526315779479 -5 0  4.631578947359537 -5 0  5.052631578939595 -5 0  5.473684210519653 -5 0  5.89473684209971 -5 0  6.315789473679768 -5 0  6.736842105259826 -5 0  7.157894736839884 -5 0  7.578947368419942 -5 0  8.407407407405314 -5 0  8.814814814810628 -5 0  9.222222222215942 -5 0  9.629629629621256 -5 0  10.03703703702657 -5 0  10.44444444443188 -5 0  10.8518518518372 -5 0  11.25925925924251 -5 0  11.66666666664783 -5 0  12.07407407405314 -5 0  12.48148148145846 -5 0  12.88888888886377 -5 0  13.29629629626908 -5 0  13.7037037036744 -5 0  14.11111111107971 -5 0  14.51851851848502 -5 0  14.92592592589034 -5 0  15.33333333329565 -5 0  15.74074074070096 -5 0  16.14814814810754 -5 0  16.55555555551614 -5 0  16.96296296292474 -5 0  17.37037037033335 -5 0  17.77777777774195 -5 0  18.18518518515056 -5 0  18.59259259255916 -5 0  18.99999999996776 -5 0  19.40740740737636 -5 0  19.81481481478497 -5 0  20.22222222219357 -5 0  20.62962962960217 -5 0  21.03703703701077 -5 0  21.44444444441937 -5 0  21.85185185182797 -5 0  22.25925925923657 -5 0  22.66666666664518 -5 0  23.07407407405378 -5 0  23.48148148146238 -5 0  23.88888888887098 -5 0  24.29629629627958 -5 0  24.70370370368818 -5 0  25.11111111109678 -5 0  25.51851851850539 -5 0  25.92592592591399 -5 0  26.33333333332259 -5 0  26.74074074073119 -5 0  27.14814814813979 -5 0  27.55555555554839 -5 0  27.96296296295699 -5 0  28.3703703703656 -5 0  28.7777777777742 -5 0  29.1851851851828 -5 0  29.5925925925914 -5 0  30.41666666667852 -5 0  30.83333333335704 -5 0  31.25000000003556 -5 0  31.66666666671408 -5 0  32.08333333338936 -5 0  32.50000000005308 -5 0  32.9166666667168 -5 0  33.33333333338052 -5 0  33.75000000004424 -5 0  34.16666666670795 -5 0  34.58333333337167 -5 0  35.00000000003539 -5 0  35.41666666669911 -5 0  35.83333333336282 -5 0  36.25000000002654 -5 0  36.66666666669026 -5 0  37.08333333335398 -5 0  37.50000000001769 -5 0  37.91666666668141 -5 0  38.33333333334513 -5 0  38.75000000000885 -5 0  39.16666666667257 -5 0  39.58333333333628 -5 0  40 -4.583333333332821 0  40 -4.166666666665642 0  40 -3.74999999999855 0  40 -3.333333333333135 0  40 -2.916666666667806 0  40 -2.500000000002478 0  40 -2.083333333337148 0  40 -1.666666666671818 0  40 -1.250000000006488 0  40 -0.8333333333405228 0  40 -0.4166666666733416 0  40 -6.163070054299169e-12 0  40 0.4166666666610173 0  40 0.8333333333281976 0  40 1.249999999995378 0  40 1.666666666662558 0  40 2.083333333329739 0  40 2.499999999996919 0  40 2.916666666664099 0  40 3.33333333333128 0  40 3.74999999999846 0  40 4.166666666665641 0  40 4.583333333332821 0  39.58333333333628 5 0  39.16666666667256 5 0  38.75000000000885 5 0  38.33333333334513 5 0  37.91666666668141 5 0  37.50000000001769 5 0  37.08333333335398 5 0  36.66666666669025 5 0  36.25000000002654 5 0  35.83333333336282 5 0  35.41666666669911 5 0  35.00000000003539 5 0  34.58333333337167 5 0  34.16666666670795 5 0  33.75000000004424 5 0  33.33333333338052 5 0  32.9166666667168 5 0  32.50000000005308 5 0  32.08333333338936 5 0  31.66666666671408 5 0  31.25000000003556 5 0  30.83333333335704 5 0  30.41666666667852 5 0  29.59259259259259 5 0  29.18518518518519 5 0  28.77777777777778 5 0  28.37037037037037 5 0  27.96296296296296 5 0  27.55555555555556 5 0  27.14814814814815 5 0  26.74074074074074 5 0  26.33333333333333 5 0  25.92592592592593 5 0  25.51851851851852 5 0  25.11111111111111 5 0  24.7037037037037 5 0  24.2962962962963 5 0  23.88888888888889 5 0  23.48148148148148 5 0  23.07407407407408 5 0  22.66666666666667 5 0  22.25925925925926 5 0  21.85185185185185 5 0  21.44444444444445 5 0  21.03703703703704 5 0  20.62962962962963 5 0  20.22222222222222 5 0  19.81481481481482 5 0  19.40740740740741 5 0  19 5 0  18.5925925925926 5 0  18.18518518518519 5 0  17.77777777777778 5 0  17.37037037037037 5 0  16.96296296296296 5 0  16.55555555555556 5 0  16.14814814814815 5 0  15.74074074074074 5 0  15.33333333333333 5 0  14.92592592592593 5 0  14.51851851851852 5 0  14.11111111111111 5 0  13.70370370370371 5 0  13.2962962962963 5 0  12.88888888888889 5 0  12.48148148148148 5 0  12.07407407407408 5 0  11.66666666666667 5 0  11.25925925925926 5 0  10.85185185185185 5 0  10.44444444444445 5 0  10.03703703703704 5 0  9.629629629629633 5 0  9.222222222222221 5 0  8.814814814814817 5 0  8.407407407407408 5 0  7.5789473684193 5 0  7.157894736838599 5 0  6.73684210526082 5 0  6.315789473684795 5 0  5.894736842108769 5 0  5.473684210532742 5 0  5.052631578956715 5 0  4.631578947380689 5 0  4.210526315804662 5 0  3.789473684226299 5 0  3.368421052645599 5 0  2.947368421064898 5 0  2.526315789484198 5 0  2.105263157903499 5 0  1.6842105263228 5 0  1.2631578947421 5 0  0.8421052631613994 5 0  0.4210526315806993 5 0  0 4.545454545454545 0  0 4.09090909090909 0  0 3.636363636363634 0  0 3.18181818181818 0  0 2.727272727272726 0  0 2.272727272727271 0  0 1.818181818181817 0  0 1.363636363636363 0  0 0.9090909090909092 0  0 0.454545454545455 0  0 -0.4545454545450807 0  0 -0.9090909090895867 0  0 -1.363636363633713 0  0 -1.818181818177841 0  0 -2.272727272723127 0  0 -2.727272727269273 0  0 -3.181818181815419 0  0 -3.636363636361564 0  0 -4.090909090907709 0  0 -4.545454545453855 0  8 -4.499999999999999 0  8 -3.999999999999999 0  8 -3.499999999999999 0  8 -3 0  8.137254901963859 -2.5 0  8.274509803926303 -2.5 0  8.411764705886863 -2.5 0  8.549019607849138 -2.5 0  8.686274509809513 -2.5 0  8.82352941176989 -2.5 0  8.960784313730265 -2.5 0  9.098039215690642 -2.5 0  9.235294117651017 -2.5 0  9.372549019611395 -2.5 0  9.50980392157177 -2.5 0  9.647058823532147 -2.5 0  9.784313725492522 -2.5 0  9.921568627452897 -2.5 0  10.05882352941327 -2.5 0  10.19607843137365 -2.5 0  10.33333333333402 -2.5 0  10.4705882352944 -2.5 0  10.60784313725478 -2.5 0  10.74509803921515 -2.5 0  10.88235294117553 -2.5 0  11.0196078431359 -2.5 0  11.15686274509628 -2.5 0  11.29411764705665 -2.5 0  11.43137254901703 -2.5 0  11.56862745097915 -2.5 0  11.70588235294301 -2.5 0  11.84313725490686 -2.5 0  11.98039215687072 -2.5 0  12.11764705883209 -2.5 0  12.25490196079247 -2.5 0  12.39215686275285 -2.5 0  12.52941176471322 -2.5 0  12.6666666666736 -2.5 0  12.80392156863397 -2.5 0  12.94117647059435 -2.5 0  13.07843137255473 -2.5 0  13.2156862745151 -2.5 0  13.35294117647548 -2.5 0  13.49019607843586 -2.5 0  13.62745098039623 -2.5 0  13.76470588235661 -2.5 0  13.90196078431699 -2.5 0  14.03921568627736 -2.5 0  14.17647058823774 -2.5 0  14.31372549019812 -2.5 0  14.45098039215849 -2.5 0  14.58823529411887 -2.5 0  14.72549019607925 -2.5 0  14.86274509803962 -2.5 0  15.20270270270254 -2.5 0  15.40540540540509 -2.5 0  15.60810810810763 -2.5 0  15.81081081081017 -2.5 0  16.01351351351227 -2.5 0  16.21621621621265 -2.5 0  16.41891891891279 -2.5 0  16.62162162161294 -2.5 0  16.82432432431308 -2.5 0  17.02702702701322 -2.5 0  17.22972972971337 -2.5 0  17.43243243241351 -2.5 0  17.63513513511365 -2.5 0  17.83783783781379 -2.5 0  18.04054054051394 -2.5 0  18.24324324321408 -2.5 0  18.44594594591422 -2.5 0  18.64864864861436 -2.5 0  18.85135135131451 -2.5 0  19.05405405401465 -2.5 0  19.25675675671479 -2.5 0  19.45945945941494 -2.5 0  19.66216216211508 -2.5 0  19.86486486481522 -2.5 0  20.06756756751536 -2.5 0  20.27027027021551 -2.5 0  20.47297297291565 -2.5 0  20.6756756756158 -2.5 0  20.87837837831594 -2.5 0  21.08108108101608 -2.5 0  21.28378378371622 -2.5 0  21.48648648641637 -2.5 0  21.68918918911651 -2.5 0  21.89189189181666 -2.5 0  22.0945945945168 -2.5 0  22.29729729721694 -2.5 0  22.49999999991778 -2.5 0  22.70270270262203 -2.5 0  22.90540540532697 -2.5 0  23.10810810803191 -2.5 0  23.31081081073686 -2.5 0  23.5135135134418 -2.5 0  23.71621621614674 -2.5 0  23.91891891885169 -2.5 0  24.12162162155663 -2.5 0  24.32432432426158 -2.5 0  24.52702702696652 -2.5 0  24.72972972967146 -2.5 0  24.93243243237641 -2.5 0  25.13513513508135 -2.5 0  25.3378378377863 -2.5 0  25.54054054049124 -2.5 0  25.74324324319618 -2.5 0  25.94594594590112 -2.5 0  26.14864864860607 -2.5 0  26.35135135131101 -2.5 0  26.55405405401596 -2.5 0  26.7567567567209 -2.5 0  26.95945945942584 -2.5 0  27.16216216213079 -2.5 0  27.36486486483573 -2.5 0  27.56756756754068 -2.5 0  27.77027027024562 -2.5 0  27.97297297295056 -2.5 0  28.1756756756555 -2.5 0  28.37837837836045 -2.5 0  28.5810810810654 -2.5 0  28.78378378377034 -2.5 0  28.98648648647528 -2.5 0  29.18918918918023 -2.5 0  29.39189189188517 -2.5 0  29.59459459459011 -2.5 0  29.79729729729506 -2.5 0  30 -3.000000000000001 0  30 -3.500000000000001 0  30 -4.000000000000001 0  30 -4.5 0  8 4.499999999999999 0  8 3.999999999999999 0  8 3.499999999999999 0  8 3 0  8.137254901963859 2.5 0  8.274509803926303 2.5 0  8.411764705886863 2.5 0  8.549019607849138 2.5 0  8.686274509809513 2.5 0  8.82352941176989 2.5 0  8.960784313730265 2.5 0  9.098039215690642 2.5 0  9.235294117651017 2.5 0  9.372549019611395 2.5 0  9.50980392157177 2.5 0  9.647058823532147 2.5 0  9.784313725492522 2.5 0  9.921568627452897 2.5 0  10.05882352941327 2.5 0  10.19607843137365 2.5 0  10.33333333333402 2.5 0  10.4705882352944 2.5 0  10.60784313725478 2.5 0  10.74509803921515 2.5 0  10.88235294117553 2.5 0  11.0196078431359 2.5 0  11.15686274509628 2.5 0  11.29411764705665 2.5 0  11.43137254901703 2.5 0  11.56862745097915 2.5 0  11.70588235294301 2.5 0  11.84313725490686 2.5 0  11.98039215687072 2.5 0  12.11764705883209 2.5 0  12.25490196079247 2.5 0  1
[...]
<PointData  Vectors="f_17"> 
<DataArray  type="Float64"  Name="f_17"  NumberOfComponents="3" format="ascii">1.0000001314479217e+00 0.0000000000000000e+00 0.0000000000000000e+00  1.0405389417041921e+00 0.0000000000000000e+00 0.0000000000000000e+00  1.0652825439806781e+00 0.0000000000000000e+00 0.0000000000000000e+00  1.0950296508129909e+00 0.0000000000000000e+00 0.0000000000000000e+00  1.0736898945714628e+00 0.0000000000000000e+00 0.0000000000000000e+00  1.0493506173013898e+00 0.0000000000000000e+00 0.0000000000000000e+00  1.0403453153687838e+00 0.0000000000000000e+00 0.0000000000000000e+00  1.0000001314479217e+00 0.0000000000000000e+00 0.0000000000000000e+00  1.0235034938026490e+00 -4.9866456413998679e-02 0.0000000000000000e+00  1.0860273439319321e+00 8.7109139694335397e-02 0.0000000000000000e+00  1.1520939496152021e+00 5.3228400371351419e-03 0.0000000000000000e+00  9.8568337556567276e-01 6.6557527170676685e-04 0.0000000000000000e+00  1.0162338284628829e+00 4.5887917314023099e-02 0.0000000000000000e+00  1.0193176115038165e+00 5.1769948406337196e-02 0.0000000000000000e+00  0.0000000000000000e+00 0.0000000000000000e+00 0.0000000000000000e+00  0.0000000000000000e+00 0.0000000000000000e+00 0.0000000000000000e+00  1.0000001314479217e+00 0.0000000000000000e+00 0.0000000000000000e+00  9.9931048364153552e-01 0.0000000000000000e+00 0.0000000000000000e+00  9.9882203374023315e-01 0.0000000000000000e+00 0.0000000000000000e+00  1.0009510648032203e+00 0.0000000000000000e+00 0.0000000000000000e+00  1.0008522007749410e+00 0.0000000000000000e+00 0.0000000000000000e+00  1.0018979292528265e+00 0.0000000000000000e+00 0.0000000000000000e+00  1.0022656868364250e+00 0.0000000000000000e+00 0.0000000000000000e+00  1.0025650400226940e+00 0.0000000000000000e+00 0.0000000000000000e+00  1.0033484931138685e+00 0.0000000000000000e+00 0.0000000000000000e+00  1.0045126329125540e+00 0.0000000000000000e+00 0.0000000000000000e+00  1.0055388639109810e+00 0.0000000000000000e+00 0.0000000000000000e+00  1.0069246683535764e+00 0.0000000000000000e+00 0.0000000000000000e+00  1.0090430185785670e+00 0.0000000000000000e+00 0.0000000000000000e+00  1.0112994674232350e+00 0.0000000000000000e+00 0.0000000000000000e+00  1.0151514398240844e+00 0.0000000000000000e+00 0.0000000000000000e+00  1.0167721422285192e+00 0.0000000000000000e+00 0.0000000000000000e+00  1.0212039764413092e+00 0.0000000000000000e+00 0.0000000000000000e+00  1.0277740031624958e+00 0.0000000000000000e+00 0.0000000000000000e+00  1.0329625204474220e+00 0.0000000000000000e+00 0.0000000000000000e+00  1.0480576340094914e+00 0.0000000000000000e+00 0.0000000000000000e+00  1.0559007647629868e+00 0.0000000000000000e+00 0.0000000000000000e+00  1.0630372620020980e+00 0.0000000000000000e+00 0.0000000000000000e+00  1.0704839189763271e+00 0.0000000000000000e+00 0.0000000000000000e+00  1.0764215977341056e+00 0.0000000000000000e+00 0.0000000000000000e+00  1.0816562582038789e+00 0.0000000000000000e+00 0.0000000000000000e+00  1.0866076356848944e+00 0.0000000000000000e+00 0.0000000000000000e+00  1.0892798067831262e+00 0.0000000000000000e+00 0.0000000000000000e+00  1.0914576811725727e+00 0.0000000000000000e+00 0.0000000000000000e+00  1.0924282922927895e+00 0.0000000000000000e+00 0.0000000000000000e+00  1.0928895994834464e+00 0.0000000000000000e+00 0.0000000000000000e+00  1.0913635027317388e+00 0.0000000000000000e+00 0.0000000000000000e+00  1.0896997925415328e+00 0.0000000000000000e+00 0.0000000000000000e+00  1.0864990078180756e+00 0.0000000000000000e+00 0.0000000000000000e+00  1.0816762084593072e+00 0.0000000000000000e+00 0.0000000000000000e+00  1.0758845641053219e+00 0.0000000000000000e+00 0.0000000000000000e+00  1.0689721991959635e+00 0.0000000000000000e+00 0.0000000000000000e+00  1.0617596031179430e+00 0.0000000000000000e+00 0.0000000000000000e+00  1.0545391100968269e+00 0.0000000000000000e+00 0.0000000000000000e+00  1.0482734776131382e+00 0.0000000000000000e+00 0.0000000000000000e+00  1.0449108759634689e+00 0.0000000000000000e+00 0.0000000000000000e+00  1.0443050655198032e+00 0.0000000000000000e+00 0.0000000000000000e+00  1.0448528682118219e+00 0.0000000000000000e+00 0.0000000000000000e+00  1.0482748883783684e+00 0.0000000000000000e+00 0.0000000000000000e+00  1.0527855880728236e+00 0.0000000000000000e+00 0.0000000000000000e+00  1.0573023053467170e+00 0.0000000000000000e+00 0.0000000000000000e+00  1.0613007721483245e+00 0.0000000000000000e+00 0.0000000000000000e+00  1.0628894294222344e+00 0.0000000000000000e+00 0.0000000000000000e+00  1.0621958825073812e+00 0.0000000000000000e+00 0.0000000000000000e+00  1.0596216609944860e+00 0.0000000000000000e+00 0.0000000000000000e+00  1.0546818572685868e+00 0.0000000000000000e+00 0.0000000000000000e+00  1.0490969831452093e+00 0.0000000000000000e+00 0.0000000000000000e+00  1.0455015762600897e+00 0.0000000000000000e+00 0.0000000000000000e+00  1.0423511142089659e+00 0.0000000000000000e+00 0.0000000000000000e+00  1.0411108915988627e+00 0.0000000000000000e+00 0.0000000000000000e+00  1.0432410954225668e+00 0.0000000000000000e+00 0.0000000000000000e+00  1.0464350824566162e+00 0.0000000000000000e+00 0.0000000000000000e+00  1.0507329986256300e+00 0.0000000000000000e+00 0.0000000000000000e+00  1.0568397137503547e+00 0.0000000000000000e+00 0.0000000000000000e+00  1.0611328972447513e+00 0.0000000000000000e+00 0.0000000000000000e+00  1.0634881205027069e+00 0.0000000000000000e+00 0.0000000000000000e+00  1.0643672224172538e+00 0.0000000000000000e+00 0.0000000000000000e+00  1.0623607836201361e+00 0.0000000000000000e+00 0.0000000000000000e+00  1.0587435738758071e+00 0.0000000000000000e+00 0.0000000000000000e+00  1.0551138327628453e+00 0.0000000000000000e+00 0.0000000000000000e+00  1.0509941096033844e+00 0.0000000000000000e+00 0.0000000000000000e+00  1.0479467205784869e+00 0.0000000000000000e+00 0.0000000000000000e+00  1.0492291570242067e+00 0.0000000000000000e+00 0.0000000000000000e+00  1.0504383484370932e+00 0.0000000000000000e+00 0.0000000000000000e+00  1.0516961115274954e+00 0.0000000000000000e+00 0.0000000000000000e+00  1.0550626734082433e+00 0.0000000000000000e+00 0.0000000000000000e+00  1.0600030291461922e+00 0.0000000000000000e+00 0.0000000000000000e+00  1.0632946626662689e+00 0.0000000000000000e+00 0.0000000000000000e+00  1.0650151222248327e+00 0.0000000000000000e+00 0.0000000000000000e+00  1.0621005132371759e+00 0.0000000000000000e+00 0.0000000000000000e+00  1.0579092716060270e+00 0.0000000000000000e+00 0.0000000000000000e+00  1.0544916305470657e+00 0.0000000000000000e+00 0.0000000000000000e+00  1.0518413755741569e+00 0.0000000000000000e+00 0.0000000000000000e+00  1.0504192412744320e+00 0.0000000000000000e+00 0.0000000000000000e+00  1.0510905206054602e+00 0.0000000000000000e+00 0.0000000000000000e+00  1.0538679220415694e+00 0.0000000000000000e+00 0.0000000000000000e+00  1.0579761020910901e+00 0.0000000000000000e+00 0.0000000000000000e+00  1.0619303083371288e+00 0.0000000000000000e+00 0.0000000000000000e+00  1.0658925945332371e+00 0.0000000000000000e+00 0.0000000000000000e+00  1.0681576366469250e+00 0.0000000000000000e+00 0.0000000000000000e+00  1.0684529134132121e+00 0.0000000000000000e+00 0.0000000000000000e+00  1.0675760334644961e+00 0.0000000000000000e+00 0.0000000000000000e+00  1.0654157555999548e+00 0.0000000000000000e+00 0.0000000000000000e+00  1.0633755261550186e+00 0.0000000000000000e+00 0.0000000000000000e+00  1.0611798097009397e+00 0.0000000000000000e+00 0.0000000000000000e+00  1.0610590781955342e+00 0.0000000000000000e+00 0.0000000000000000e+00  1.0628957139050199e+00 0.0000000000000000e+00 0.0000000000000000e+00  1.0676555320020955e+00 0.0000000000000000e+00 0.0000000000000000e+00  1.0738076250480180e+00 0.0000000000000000e+00 0.0000000000000000e+00  1.0817431828231201e+00 0.0000000000000000e+00 0.0000000000000000e+00  1.0886049012965340e+00 0.0000000000000000e+00 0.0000000000000000e+00  1.0968833320212892e+00 -5.2586292970328036e-03 0.0000000000000000e+00  1.1020369523045161e+00 -1.1441053930138544e-02 0.0000000000000000e+00  1.1121575685055425e+00 -1.9622339678917210e-02 0.0000000000000000e+00  1.1292869333708886e+00 -3.1625037444630397e-02 0.0000000000000000e+00  1.1580477179930053e+00 -4.9382638303481802e-02 0.0000000000000000e+00  1.1844630960645413e+00 -7.2648304464002111e-02 0.0000000000000000e+00  1.1814914600624546e+00 -9.4893575030861307e-02 0.0000000000000000e+00  1.1200998486659537e+00 -1.0824084790169206e-01 0.0000000000000000e+00  9.9768454378868754e-01 -1.0036444637639172e-01 0.0000000000000000e+00  8.5438777807337374e-01 -7.0627113780803594e-02 0.0000000000000000e+00  7.4612320623472650e-01 -3.9399550445676793e-02 0.0000000000000000e+00  7.0533387475113085e-01 -1.9046300018028310e-02 0.0000000000000000e+00  7.2464698490927959e-01 -1.4296741470187882e-02 0.0000000000000000e+00  7.8019828199594887e-01 -1.4941242185875265e-02 0.0000000000000000e+00  8.4651244142824389e-01 -2.6002750832091217e-02 0.0000000000000000e+00  9.1032813832727832e-01 -2.7939924719529861e-02 0.0000000000000000e+00  9.6534496243922796e-01 -2.0531583356566435e-02 0.0000000000000000e+00  1.0078891688286675e+00 -1.1656763967780776e-02 0.0000000000000000e+00  1.0367495104171314e+00 -3.5762188414021718e-03 0.0000000000000000e+00  1.0555983293799149e+00 2.0564044561036088e-04 0.0000000000000000e+00  1.0657671709991061e+00 1.8817131499501106e-03 0.0000000000000000e+00  1.0715146882789559e+00 1.9697938886701900e-03 0.0000000000000000e+00  1.0735510315566712e+00 1.1445810023212248e-03 0.0000000000000000e+00  1.0731246796887015e+00 0.0000000000000000e+00 0.0000000000000000e+00  1.0740118023741190e+00 0.0000000000000000e+00 0.0000000000000000e+00  1.0754327614384120e+00 0.0000000000000000e+00 0.0000000000000000e+00  1.0768151360821634e+00 0.0000000000000000e+00 0.0000000000000000e+00  1.0764241058840471e+00 0.0000000000000000e+00 0.0000000000000000e+00  1.0748377955423187e+00 0.0000000000000000e+00 0.0000000000000000e+00  1.0717992243891694e+00 0.0000000000000000e+00 0.0000000000000000e+00  1.0675391763667583e+00 0.0000000000000000e+00 0.0000000000000000e+00  1.0622424668991359e+00 0.0000000000000000e+00 0.0000000000000000e+00  1.0577755169440284e+00 0.0000000000000000e+00 0.0000000000000000e+00  1.0548288423422976e+00 0.0000000000000000e+00 0.0000000000000000e+00  1.0536588632805186e+00 0.0000000000000000e+00 0.0000000000000000e+00  1.0547268807745784e+00 0.0000000000000000e+00 0.0000000000000000e+00  1.0579626721769628e+00 0.0000000000000000e+00 0.0000000000000000e+00  1.0612403930639007e+00 0.0000000000000000e+00 0.0000000000000000e+00  1.0650107006933398e+00 0.0000000000000000e+00 0.0000000000000000e+00  1.0662862929374195e+00 0.0000000000000000e+00 0.0000000000000000e+00  1.0662575980424291e+00 0.0000000000000000e+00 0.0000000000000000e+00  1.0640591084483082e+00 0.0000000000000000e+00 0.0000000000000000e+00  1.0609156914174114e+00 0.0000000000000000e+00 0.0000000000000000e+00  1.0569290378832350e+00 0.0000000000000000e+00 0.0000000000000000e+00  1.0526341757718340e+00 0.0000000000000000e+00 0.0000000000000000e+00  1.0502188736260021e+00 0.0000000000000000e+00 0.0000000000000000e+00  1.0497107110662836e+00 0.0000000000000000e+00 0.0000000000000000e+00  1.0526184492454487e+00 0.0000000000000000e+00 0.0000000000000000e+00  1.0554090968905812e+00 0.0000000000000000e+00 0.0000000000000000e+00  1.0598595391797729e+00 0.0000000000000000e+00 0.0000000000000000e+00  1.0642818619296033e+00 0.0000000000000000e+00 0.0000000000000000e+00  1.0656333940242173e+00 0.0000000000000000e+00 0.0000000000000000e+00  1.0629910659920816e+00 0.0000000000000000e+00 0.0000000000000000e+00  1.0606728039413722e+00 0.0000000000000000e+00 0.0000000000000000e+00  1.0568086595101172e+00 0.0000000000000000e+00 0.0000000000000000e+00  1.0517369024829055e+00 0.0000000000000000e+00 0.0000000000000000e+00  1.0480035456447734e+00 0.0000000000000000e+00 0.0000000000000000e+00  1.0457629989578097e+00 0.0000000000000000e+00 0.0000000000000000e+00  1.0448216055625423e+00 0.0000000000000000e+00 0.0000000000000000e+00  1.0467180963232232e+00 0.0000000000000000e+00 0.0000000000000000e+00  1.0502515688488578e+00 0.0000000000000000e+00 0.0000000000000000e+00  1.0537557041409806e+00 0.0000000000000000e+00 0.0000000000000000e+00  1.0583685287026365e+00 0.0000000000000000e+00 0.0000000000000000e+00  1.0616268363992294e+00 0.0000000000000000e+00 0.0000000000000000e+00  1.0619977668180869e+00 0.0000000000000000e+00 0.0000000000000000e+00  1.0607934744351206e+00 0.0000000000000000e+00 0.0000000000000000e+00  1.0572052337956139e+00 0.0000000000000000e+00 0.0000000000000000e+00  1.0510433841042390e+00 0.0000000000000000e+00 0.0000000000000000e+00  1.0460673722349567e+00 0.0000000000000000e+00 0.0000000000000000e+00  1.0417457594065058e+00 0.0000000000000000e+00 0.0000000000000000e+00  1.0383985171219896e+00 0.0000000000000000e+00 0.0000000000000000e+00  1.0379151945897569e+00 0.0000000000000000e+00 0.0000000000000000e+00  1.0399216414805779e+00 0.0000000000000000e+00 0.0000000000000000e+00  1.0437517760129391e+00 0.0000000000000000e+00 0.0000000000000000e+00  1.0493786963303908e+00 0.0000000000000000e+00 0.0000000000000000e+00  1.0555222992769078e+00 0.0000000000000000e+00 0.0000000000000000e+00  1.0608048483967851e+00 0.0000000000000000e+00 0.0000000000000000e+00  1.0654519578354975e+00 0.0000000000000000e+00 0.0000000000000000e+00  1.0670574554577603e+00 0.0000000000000000e+00 0.0000000000000000e+00  1.0671061580581900e+00 0.0000000000000000e+00 0.0000000000000000e+00  1.0666359063112767e+00 0.0000000000000000e+00 0.0000000000000000e+00  1.0654096989378303e+00 0.0000000000000000e+00 0.0000000000000000e+00  1.0641033947528682e+00 0.0000000000000000e+00 0.0000000000000000e+00  1.0636338991459831e+00 0.0000000000000000e+00 0.0000000000000000e+00  1.0652448547684252e+00 0.0000000000000000e+00 0.0000000000000000e+00  1.0693872258069570e+00 0.0000000000000000e+00 0.0000000000000000e+00  1.0741897365808424e+00 0.0000000000000000e+00 0.0000000000000000e+00  1.0794828061776740e+00 0.0000000000000000e+00 0.0000000000000000e+00  1.0861230298537561e+00 0.0000000000000000e+00 0.0000000000000000e+00  1.0900784995397641e+00 0.0000000000000000e+00 0.0000000000000000e+00  1.0932343805150857e+00 0.0000000000000000e+00 0.0000000000000000e+00  1.0938466941075828e+00 0.0000000000000000e+00 0.0000000000000000e+00  1.0915654516343105e+00 0.0000000000000000e+00 0.0000000000000000e+00  1.0871862240985384e+00 0.0000000000000000e+00 0.0000000000000000e+00  1.0812681808502578e+00 0.0000000000000000e+00 0.0000000000000000e+00  1.0740376179778497e+00 0.0000000000000000e+00 0.0000000000000000e+00  1.0652152246198121e+00 0.0000000000000000e+00 0.0000000000000000e+00  1.0571455006072699e+00 0.0000000000000000e+00 0.0000000000000000e+00  1.0485063272721424e+00 0.0000000000000000e+00 0.0000000000000000e+00  1.0325374859199554e+00 0.0000000000000000e+00 0.0000000000000000e+00  1.0258591584856087e+00 0.0000000000000000e+00 0.0000000000000000e+00  1.0206187922338683e+00 0.0000000000000000e+00 0.0000000000000000e+00  1.0159673175917796e+00 0.0000000000000000e+00 0.0000000000000000e+00  1.0121597911560352e+00 0.0000000000000000e+00 0.0000000000000000e+00  1.0091643600018696e+00 0.0000000000000000e+00 0.0000000000000000e+00  1.0068781434299654e+00 0.0000000000000000e+00 0.0000000000000000e+00  1.0046437015991536e+00 0.0000000000000000e+00 0.0000000000000000e+00  1.0031037621069543e+00 0.0000000000000000e+00 0.0000000000000000e+00  1.0020168269873642e+00 0.0000000000000000e+00 0.0000000000000000e+00  1.0008209526875960e+00 0.0000000000000000e+00 0.0000000000000000e+00  1.0006884047259517e+00 0.0000000000000000e+00 0.0000000000000000e+00  9.9969751769548931e-01 0.0000000000000000e+00 0.0000000000000000e+00  9.9976885565113049e-01 0.0000000000000000e+00 0.0000000000000000e+00  9.9950118680320887e-01 0.0000000000000000e+00 0.0000000000000000e+00  1.0002980969441564e+00 0.0000000000000000e+00 0.0000000000000000e+00  1.0001630276831359e+00 0.0000000000000000e+00 0.0000000000000000e+00  9.9978500674395454e-01 0.0000000000000000e+00 0.0000000000000000e+00  1.0000001314479217e+00 0.0000000000000000e+00 0.0000000000000000e+00  1.0000001314479217e+00 0.0000000000000000e+00 0.0000000000000000e+00  1.0000001314479217e+00 0.0000000000000000e+00 0.0000000000000000e+00  1.0000001314479217e+00 0.0000000000000000e+00 0.0000000000000000e+00  1.0000001314479217e+00 0.0000000000000000e+00 0.0000000000000000e+00  1.0000001314479217e+00 0.0000000000000000e+00 0.0000000000000000e+00  1.0000001314479217e+00 0.0000000000000000e+00 0.0000000000000000e+00  1.0000001314479217e+00 0.0000000000000000e+00 0.0000000000000000e+00  1.0000001314479217e+00 0.0000000000000000e+00 0.0000000000000000e+00  1.0000001314479217e+00 0.0000000000000000e+00 0.0000000000000000e+00  1.0000001314479217e+00 0.0000000000000000e+00 0.0000000000000000e+00  1.0000001314479217e+00 0.0000000000000000e+00 0.0000000000000000e+00  1.0000001314479217e+00 0.0000000000000000e+00 0.0000000000000000e+00  1.0000001314479217e+00 0.0000000000000000e+00 0.0000000000000000e+00  1.0000001314479217e+00 0.0000000000000000e+00 0.0000000000000000e+00  1.0000001314479217e+00 0.0000000000000000e+00 0.0000000000000000e+00  1.0000001314479217e+00 0.0000000000000000e+00 0.0000000000000000e+00  1.0000001314479217e+00 0.0000000000000000e+00 0.0000000000000000e+00  1.0000001314479217e+00 0.0000000000000000e+00 0.0000000000000000e+00  1.0000001314479217e+00 0.0000000000000000e+00 0.0000000000000000e+00  1.0400127706583846e+00 -8.8535389502513127e-03 0.0000000000000000e+00  1.0373535676783350e+00 -1.7958849375311149e-02 0.0000000000000000e+00  1.0356910202844136e+00 -2.8063150506937480e-02 0.0000000000000000e+00  1.0308529795117360e+00 -3.8672852053172960e-02 0.0000000000000000e+00  1.0262865886872121e+00 -5.3135408416321445e-02 0.0000000000000000e+00  1.0308806054778012e+00 -5.5995282284118882e-02 0.0000000000000000e+00  1.0349879234941866e+00 -5.8872902988322678e-02 0.0000000000000000e+00  1.0401122406383192e+00 -6.1344063514562105e-02 0.0000000000000000e+00  1.0454140661615989e+00 -6.3594889407847785e-02 0.0000000000000000e+00  1.0512774470210076e+00 -6.5315054163121805e-02 0.0000000000000000e+00  1.0576305629837863e+00 -6.6607867292788600e-02 0.0000000000000000e+00  1.0642718852766726e+00 -6.7143118455016693e-02 0.0000000000000000e+00  1.0713098707553605e+00 -6.7031677785839336e-02 0.0000000000000000e+00  1.0782334986473616e+00 -6.5946878197652326e-02 0.0000000000000000e+00  1.0852836409320905e+00 -6.4181900817926116e-02 0.0000000000000000e+00  1.0920561990894542e+00 -6.1656912295660844e-02 0.0000000000000000e+00  1.0986622141850417e+00 -5.8025651552297212e-02 0.0000000000000000e+00  1.1045405285031951e+00 -5.3488088835807336e-02 0.0000000000000000e+00  1.1097298702411840e+00 -4.8427624832589437e-02 0.0000000000000000e+00  1.1140848134335297e+00 -4.2745135766699062e-02 0.0000000000000000e+00  1.1173960594321968e+00 -3.6640686683530183e-02 0.0000000000000000e+00  1.1195981612095274e+00 -3.0293133999644780e-02 0.0000000000000000e+00  1.1207803639551008e+00 -2.4051455008101397e-02 0.0000000000000000e+00  1.1208516139044404e+00 -1.7800890243075820e-02 0.0000000000000000e+00  1.1199229316720354e+00 -1.2307012175926391e-02 0.0000000000000000e+00  1.1180730077863787e+00 -7.0589131323236303e-03 0.0000000000000000e+00  1.1153855023059436e+00 -2.6279382312163575e-03 0.0000000000000000e+00  1.1122698051335023e+00 7.0820951936382181e-04 0.0000000000000000e+00  1.1087310800670773e+00 2.9815446217363955e-03 0.0000000000000000e+00  1.1050800426767133e+00 4.1740515907938407e-03 0.0000000000000000e+00  1.1015710645047316e+00 4.3993042333096448e-03 0.0000000000000000e+00  1.0985261569745008e+00 3.5112585468118911e-03 0.0000000000000000e+00  1.0959989196440876e+00 1.7874782832512611e-03 0.0000000000000000e+00  1.0944180467688900e+00 -5.6745907633316069e-04 0.0000000000000000e+00  1.0938952277657732e+00 -3.4659885517277153e-03 0.0000000000000000e+00  1.0944611840231477e+00 -6.4597253