<?xml version="1.0"?>
<VTKFile type="UnstructuredGrid"  version="0.1"  >
<UnstructuredGrid>
<Piece  NumberOfPoints="10199" NumberOfCells="20110">
<Points>
<DataArray  type="Float64"  NumberOfComponents="3"  format="ascii">0 -5 0  8 -5 0  30 -5 0  40 -5 0  40 5 0  30 5 0  8 5 0  0 5 0  8 -2.5 0  15 -2.5 0  30 -2.5 0  30 2.5 0  15 2.5 0  8 2.5 0  10 0.5 0  10 -0.5 0  0 0 0  0.4210526315780956 -5 0  0.8421052631563433 -5 0  1.263157894734281 -5 0  1.684210526311999 -5 0  2.105263157889717 -5 0  2.526315789467435 -5 0  2.947368421045153 -5 0  3.368421052622872 -5 0  3.78947368420059 -5 0  4.210526315779479 -5 0  4.631578947359537 -5 0  5.052631578939595 -5 0  5.473684210519653 -5 0  5.89473684209971 -5 0  6.315789473679768 -5 0  6.736842105259826 -5 0  7.157894736839884 -5 0  7.578947368419942 -5 0  8.407407407405314 -5 0  8.814814814810628 -5 0  9.222222222215942 -5 0  9.629629629621256 -5 0  10.03703703702657 -5 0  10.44444444443188 -5 0  10.8518518518372 -5 0  11.25925925924251 -5 0  11.66666666664783 -5 0  12.07407407405314 -5 0  12.48148148145846 -5 0  12.88888888886377 -5 0  13.29629629626908 -5 0  13.7037037036744 -5 0  14.11111111107971 -5 0  14.51851851848502 -5 0  14.92592592589034 -5 0  15.33333333329565 -5 0  15.74074074070096 -5 0  16.14814814810754 -5 0  16.55555555551614 -5 0  16.96296296292474 -5 0  17.37037037033335 -5 0  17.77777777774195 -5 0  18.18518518515056 -5 0  18.59259259255916 -5 0  18.99999999996776 -5 0  19.40740740737636 -5 0  19.81481481478497 -5 0  20.22222222219357 -5 0  20.62962962960217 -5 0  21.03703703701077 -5 0  21.44444444441937 -5 0  21.85185185182797 -5 0  22.25925925923657 -5 0  22.66666666664518 -5 0  23.07407407405378 -5 0  23.48148148146238 -5 0  23.88888888887098 -5 0  24.29629629627958 -5 0  24.70370370368818 -5 0  25.11111111109678 -5 0  25.51851851850539 -5 0  25.92592592591399 -5 0  26.33333333332259 -5 0  26.74074074073119 -5 0  27.14814814813979 -5 0  27.55555555554839 -5 0  27.96296296295699 -5 0  28.3703703703656 -5 0  28.7777777777742 -5 0  29.1851851851828 -5 0  29.5925925925914 -5 0  30.41666666667852 -5 0  30.83333333335704 -5 0  31.25000000003556 -5 0  31.66666666671408 -5 0  32.08333333338936 -5 0  32.50000000005308 -5 0  32.9166666667168 -5 0  33.33333333338052 -5 0  33.75000000004424 -5 0  34.16666666670795 -5 0  34.58333333337167 -5 0  35.00000000003539 -5 0  35.41666666669911 -5 0  35.83333333336282 -5 0  36.25000000002654 -5 0  36.66666666669026 -5 0  37.08333333335398 -5 0  37.50000000001769 -5 0  37.91666666668141 -5 0  38.33333333334513 -5 0  38.75000000000885 -5 0  39.16666666667257 -5 0  39.58333333333628 -5 0  40 -4.583333333332821 0  40 -4.166666666665642 0  40 -3.74999999999855 0  40 -3.333333333333135 0  40 -2.916666666667806 0  40 -2.500000000002478 0  40 -2.083333333337148 0  40 -1.666666666671818 0  40 -1.250000000006488 0  40 -0.8333333333405228 0  40 -0.4166666666733416 0  40 -6.163070054299169e-12 0  40 0.4166666666610173 0  40 0.8333333333281976 0  40 1.249999999995378 0  40 1.666666666662558 0  40 2.083333333329739 0  40 2.499999999996919 0  40 2.916666666664099 0  40 3.33333333333128 0  40 3.74999999999846 0  40 4.166666666665641 0  40 4.583333333332821 0  39.58333333333628 5 0  39.16666666667256 5 0  38.75000000000885 5 0  38.33333333334513 5 0  37.91666666668141 5 0  37.50000000001769 5 0  37.08333333335398 5 0  36.66666666669025 5 0  36.25000000002654 5 0  35.83333333336282 5 0  35.41666666669911 5 0  35.00000000003539 5 0  34.58333333337167 5 0  34.16666666670795 5 0  33.75000000004424 5 0  33.33333333338052 5 0  32.9166666667168 5 0  32.50000000005308 5 0  32.08333333338936 5 0  31.66666666671408 5 0  31.25000000003556 5 0  30.83333333335704 5 0  30.41666666667852 5 0  29.59259259259259 5 0  29.18518518518519 5 0  28.77777777777778 5 0  28.37037037037037 5 0  27.96296296296296 5 0  27.55555555555556 5 0  27.14814814814815 5 0  26.74074074074074 5 0  26.33333333333333 5 0  25.92592592592593 5 0  25.51851851851852 5 0  25.11111111111111 5 0  24.7037037037037 5 0  24.2962962962963 5 0  23.88888888888889 5 0  23.48148148148148 5 0  23.07407407407408 5 0  22.66666666666667 5 0  22.25925925925926 5 0  21.85185185185185 5 0  21.44444444444445 5 0  21.03703703703704 5 0  20.62962962962963 5 0  20.22222222222222 5 0  19.81481481481482 5 0  19.40740740740741 5 0  19 5 0  18.5925925925926 5 0  18.18518518518519 5 0  17.77777777777778 5 0  17.37037037037037 5 0  16.96296296296296 5 0  16.55555555555556 5 0  16.14814814814815 5 0  15.74074074074074 5 0  15.33333333333333 5 0  14.92592592592593 5 0  14.51851851851852 5 0  14.11111111111111 5 0  13.70370370370371 5 0  13.2962962962963 5 0  12.88888888888889 5 0  12.48148148148148 5 0  12.07407407407408 5 0  11.66666666666667 5 0  11.25925925925926 5 0  10.85185185185185 5 0  10.44444444444445 5 0  10.03703703703704 5 0  9.629629629629633 5 0  9.222222222222221 5 0  8.814814814814817 5 0  8.407407407407408 5 0  7.5789473684193 5 0  7.157894736838599 5 0  6.73684210526082 5 0  6.315789473684795 5 0  5.894736842108769 5 0  5.473684210532742 5 0  5.052631578956715 5 0  4.631578947380689 5 0  4.210526315804662 5 0  3.789473684226299 5 0  3.368421052645599 5 0  2.947368421064898 5 0  2.526315789484198 5 0  2.105263157903499 5 0  1.6842105263228 5 0  1.2631578947421 5 0  0.8421052631613994 5 0  0.4210526315806993 5 0  0 4.545454545454545 0  0 4.09090909090909 0  0 3.636363636363634 0  0 3.18181818181818 0  0 2.727272727272726 0  0 2.272727272727271 0  0 1.818181818181817 0  0 1.363636363636363 0  0 0.9090909090909092 0  0 0.454545454545455 0  0 -0.4545454545450807 0  0 -0.9090909090895867 0  0 -1.363636363633713 0  0 -1.818181818177841 0  0 -2.272727272723127 0  0 -2.727272727269273 0  0 -3.181818181815419 0  0 -3.636363636361564 0  0 -4.090909090907709 0  0 -4.545454545453855 0  8 -4.499999999999999 0  8 -3.999999999999999 0  8 -3.499999999999999 0  8 -3 0  8.137254901963859 -2.5 0  8.274509803926303 -2.5 0  8.411764705886863 -2.5 0  8.549019607849138 -2.5 0  8.686274509809513 -2.5 0  8.82352941176989 -2.5 0  8.960784313730265 -2.5 0  9.098039215690642 -2.5 0  9.235294117651017 -2.5 0  9.372549019611395 -2.5 0  9.50980392157177 -2.5 0  9.647058823532147 -2.5 0  9.784313725492522 -2.5 0  9.921568627452897 -2.5 0  10.05882352941327 -2.5 0  10.19607843137365 -2.5 0  10.33333333333402 -2.5 0  10.4705882352944 -2.5 0  10.60784313725478 -2.5 0  10.74509803921515 -2.5 0  10.88235294117553 -2.5 0  11.0196078431359 -2.5 0  11.15686274509628 -2.5 0  11.29411764705665 -2.5 0  11.43137254901703 -2.5 0  11.56862745097915 -2.5 0  11.70588235294301 -2.5 0  11.84313725490686 -2.5 0  11.98039215687072 -2.5 0  12.11764705883209 -2.5 0  12.25490196079247 -2.5 0  12.39215686275285 -2.5 0  12.52941176471322 -2.5 0  12.6666666666736 -2.5 0  12.80392156863397 -2.5 0  12.94117647059435 -2.5 0  13.07843137255473 -2.5 0  13.2156862745151 -2.5 0  13.35294117647548 -2.5 0  13.49019607843586 -2.5 0  13.62745098039623 -2.5 0  13.76470588235661 -2.5 0  13.90196078431699 -2.5 0  14.03921568627736 -2.5 0  14.17647058823774 -2.5 0  14.31372549019812 -2.5 0  14.45098039215849 -2.5 0  14.58823529411887 -2.5 0  14.72549019607925 -2.5 0  14.86274509803962 -2.5 0  15.20270270270254 -2.5 0  15.40540540540509 -2.5 0  15.60810810810763 -2.5 0  15.81081081081017 -2.5 0  16.01351351351227 -2.5 0  16.21621621621265 -2.5 0  16.41891891891279 -2.5 0  16.62162162161294 -2.5 0  16.82432432431308 -2.5 0  17.02702702701322 -2.5 0  17.22972972971337 -2.5 0  17.43243243241351 -2.5 0  17.63513513511365 -2.5 0  17.83783783781379 -2.5 0  18.04054054051394 -2.5 0  18.24324324321408 -2.5 0  18.44594594591422 -2.5 0  18.64864864861436 -2.5 0  18.85135135131451 -2.5 0  19.05405405401465 -2.5 0  19.25675675671479 -2.5 0  19.45945945941494 -2.5 0  19.66216216211508 -2.5 0  19.86486486481522 -2.5 0  20.06756756751536 -2.5 0  20.27027027021551 -2.5 0  20.47297297291565 -2.5 0  20.6756756756158 -2.5 0  20.87837837831594 -2.5 0  21.08108108101608 -2.5 0  21.28378378371622 -2.5 0  21.48648648641637 -2.5 0  21.68918918911651 -2.5 0  21.89189189181666 -2.5 0  22.0945945945168 -2.5 0  22.29729729721694 -2.5 0  22.49999999991778 -2.5 0  22.70270270262203 -2.5 0  22.90540540532697 -2.5 0  23.10810810803191 -2.5 0  23.31081081073686 -2.5 0  23.5135135134418 -2.5 0  23.71621621614674 -2.5 0  23.91891891885169 -2.5 0  24.12162162155663 -2.5 0  24.32432432426158 -2.5 0  24.52702702696652 -2.5 0  24.72972972967146 -2.5 0  24.93243243237641 -2.5 0  25.13513513508135 -2.5 0  25.3378378377863 -2.5 0  25.54054054049124 -2.5 0  25.74324324319618 -2.5 0  25.94594594590112 -2.5 0  26.14864864860607 -2.5 0  26.35135135131101 -2.5 0  26.55405405401596 -2.5 0  26.7567567567209 -2.5 0  26.95945945942584 -2.5 0  27.16216216213079 -2.5 0  27.36486486483573 -2.5 0  27.56756756754068 -2.5 0  27.77027027024562 -2.5 0  27.97297297295056 -2.5 0  28.1756756756555 -2.5 0  28.37837837836045 -2.5 0  28.5810810810654 -2.5 0  28.78378378377034 -2.5 0  28.98648648647528 -2.5 0  29.18918918918023 -2.5 0  29.39189189188517 -2.5 0  29.59459459459011 -2.5 0  29.79729729729506 -2.5 0  30 -3.000000000000001 0  30 -3.500000000000001 0  30 -4.000000000000001 0  30 -4.5 0  8 4.499999999999999 0  8 3.999999999999999 0  8 3.499999999999999 0  8 3 0  8.137254901963859 2.5 0  8.274509803926303 2.5 0  8.411764705886863 2.5 0  8.549019607849138 2.5 0  8.686274509809513 2.5 0  8.82352941176989 2.5 0  8.960784313730265 2.5 0  9.098039215690642 2.5 0  9.235294117651017 2.5 0  9.372549019611395 2.5 0  9.50980392157177 2.5 0  9.647058823532147 2.5 0  9.784313725492522 2.5 0  9.921568627452897 2.5 0  10.05882352941327 2.5 0  10.19607843137365 2.5 0  10.33333333333402 2.5 0  10.4705882352944 2.5 0  10.60784313725478 2.5 0  10.74509803921515 2.5 0  10.88235294117553 2.5 0  11.0196078431359 2.5 0  11.15686274509628 2.5 0  11.29411764705665 2.5 0  11.43137254901703 2.5 0  11.56862745097915 2.5 0  11.70588235294301 2.5 0  11.84313725490686 2.5 0  11.98039215687072 2.5 0  12.11764705883209 2.5 0  12.25490196079247 2.5 0  1
[...]
<PointData  Vectors="f_17"> 
<DataArray  type="Float64"  Name="f_17"  NumberOfComponents="3" format="ascii">1.0000001296212855e+00 0.0000000000000000e+00 0.0000000000000000e+00  1.0459404799184715e+00 0.0000000000000000e+00 0.0000000000000000e+00  1.0815867236712895e+00 0.0000000000000000e+00 0.0000000000000000e+00  1.0625152560668929e+00 0.0000000000000000e+00 0.0000000000000000e+00  1.0441525350511702e+00 0.0000000000000000e+00 0.0000000000000000e+00  1.1385053322324963e+00 0.0000000000000000e+00 0.0000000000000000e+00  1.0430943890743056e+00 0.0000000000000000e+00 0.0000000000000000e+00  1.0000001296212855e+00 0.0000000000000000e+00 0.0000000000000000e+00  1.0235876376286468e+00 -5.6161146327666847e-02 0.0000000000000000e+00  1.1416181811373969e+00 -2.9238344115038301e-02 0.0000000000000000e+00  9.8285682862353729e-01 5.5490085571614500e-02 0.0000000000000000e+00  1.2111935369142288e+00 1.5104499422696549e-01 0.0000000000000000e+00  1.0459691978787844e+00 -7.6180378511498378e-02 0.0000000000000000e+00  1.0198385936674190e+00 5.4477634530802059e-02 0.0000000000000000e+00  0.0000000000000000e+00 0.0000000000000000e+00 0.0000000000000000e+00  0.0000000000000000e+00 0.0000000000000000e+00 0.0000000000000000e+00  1.0000001296212855e+00 0.0000000000000000e+00 0.0000000000000000e+00  9.9931256060451801e-01 0.0000000000000000e+00 0.0000000000000000e+00  9.9877227948951419e-01 0.0000000000000000e+00 0.0000000000000000e+00  1.0008454394173161e+00 0.0000000000000000e+00 0.0000000000000000e+00  1.0007117084071897e+00 0.0000000000000000e+00 0.0000000000000000e+00  1.0017406150427919e+00 0.0000000000000000e+00 0.0000000000000000e+00  1.0021341920561679e+00 0.0000000000000000e+00 0.0000000000000000e+00  1.0025267581641755e+00 0.0000000000000000e+00 0.0000000000000000e+00  1.0034627582627851e+00 0.0000000000000000e+00 0.0000000000000000e+00  1.0048010331924710e+00 0.0000000000000000e+00 0.0000000000000000e+00  1.0060795226127259e+00 0.0000000000000000e+00 0.0000000000000000e+00  1.0076991384819141e+00 0.0000000000000000e+00 0.0000000000000000e+00  1.0101127181940575e+00 0.0000000000000000e+00 0.0000000000000000e+00  1.0126666603729746e+00 0.0000000000000000e+00 0.0000000000000000e+00  1.0168336056163525e+00 0.0000000000000000e+00 0.0000000000000000e+00  1.0189126148412282e+00 0.0000000000000000e+00 0.0000000000000000e+00  1.0238761092809558e+00 0.0000000000000000e+00 0.0000000000000000e+00  1.0311161191873961e+00 0.0000000000000000e+00 0.0000000000000000e+00  1.0371635961741443e+00 0.0000000000000000e+00 0.0000000000000000e+00  1.0548726157971891e+00 0.0000000000000000e+00 0.0000000000000000e+00  1.0643803529815752e+00 0.0000000000000000e+00 0.0000000000000000e+00  1.0734335793065077e+00 0.0000000000000000e+00 0.0000000000000000e+00  1.0830102427359274e+00 0.0000000000000000e+00 0.0000000000000000e+00  1.0909826504619831e+00 0.0000000000000000e+00 0.0000000000000000e+00  1.0980429023589637e+00 0.0000000000000000e+00 0.0000000000000000e+00  1.1043325544521199e+00 0.0000000000000000e+00 0.0000000000000000e+00  1.1076734098139822e+00 0.0000000000000000e+00 0.0000000000000000e+00  1.1097695265169367e+00 0.0000000000000000e+00 0.0000000000000000e+00  1.1101365864632586e+00 0.0000000000000000e+00 0.0000000000000000e+00  1.1097234804479450e+00 0.0000000000000000e+00 0.0000000000000000e+00  1.1077570815538400e+00 0.0000000000000000e+00 0.0000000000000000e+00  1.1067655053584791e+00 0.0000000000000000e+00 0.0000000000000000e+00  1.1058173046793398e+00 0.0000000000000000e+00 0.0000000000000000e+00  1.1050215366350382e+00 0.0000000000000000e+00 0.0000000000000000e+00  1.1046047880496483e+00 0.0000000000000000e+00 0.0000000000000000e+00  1.1036180195301895e+00 0.0000000000000000e+00 0.0000000000000000e+00  1.1016419918574711e+00 0.0000000000000000e+00 0.0000000000000000e+00  1.0977702031697989e+00 0.0000000000000000e+00 0.0000000000000000e+00  1.0919328077547799e+00 0.0000000000000000e+00 0.0000000000000000e+00  1.0857006861495462e+00 0.0000000000000000e+00 0.0000000000000000e+00  1.0791179459478750e+00 0.0000000000000000e+00 0.0000000000000000e+00  1.0712931064029336e+00 0.0000000000000000e+00 0.0000000000000000e+00  1.0655786698194158e+00 0.0000000000000000e+00 0.0000000000000000e+00  1.0617562056494301e+00 0.0000000000000000e+00 0.0000000000000000e+00  1.0608961111394286e+00 0.0000000000000000e+00 0.0000000000000000e+00  1.0635995813455952e+00 0.0000000000000000e+00 0.0000000000000000e+00  1.0691371616308578e+00 0.0000000000000000e+00 0.0000000000000000e+00  1.0769283919102339e+00 0.0000000000000000e+00 0.0000000000000000e+00  1.0861460900827287e+00 0.0000000000000000e+00 0.0000000000000000e+00  1.0938615559992679e+00 0.0000000000000000e+00 0.0000000000000000e+00  1.0989612404594709e+00 0.0000000000000000e+00 0.0000000000000000e+00  1.1020588115377328e+00 0.0000000000000000e+00 0.0000000000000000e+00  1.1000356247533281e+00 0.0000000000000000e+00 0.0000000000000000e+00  1.0943675762069045e+00 0.0000000000000000e+00 0.0000000000000000e+00  1.0872095873901944e+00 0.0000000000000000e+00 0.0000000000000000e+00  1.0785979952579272e+00 0.0000000000000000e+00 0.0000000000000000e+00  1.0706557841456841e+00 0.0000000000000000e+00 0.0000000000000000e+00  1.0665611028569515e+00 0.0000000000000000e+00 0.0000000000000000e+00  1.0649051391953441e+00 0.0000000000000000e+00 0.0000000000000000e+00  1.0672568398366709e+00 0.0000000000000000e+00 0.0000000000000000e+00  1.0745760735451499e+00 0.0000000000000000e+00 0.0000000000000000e+00  1.0848002595230222e+00 0.0000000000000000e+00 0.0000000000000000e+00  1.0973814183747397e+00 0.0000000000000000e+00 0.0000000000000000e+00  1.1113589803459616e+00 0.0000000000000000e+00 0.0000000000000000e+00  1.1226883564383567e+00 0.0000000000000000e+00 0.0000000000000000e+00  1.1296346679022924e+00 0.0000000000000000e+00 0.0000000000000000e+00  1.1336925823355066e+00 0.0000000000000000e+00 0.0000000000000000e+00  1.1299812239084850e+00 0.0000000000000000e+00 0.0000000000000000e+00  1.1198152552779890e+00 0.0000000000000000e+00 0.0000000000000000e+00  1.1080617463553488e+00 0.0000000000000000e+00 0.0000000000000000e+00  1.0976547975945310e+00 0.0000000000000000e+00 0.0000000000000000e+00  1.0876528802403993e+00 0.0000000000000000e+00 0.0000000000000000e+00  1.0792691906450484e+00 0.0000000000000000e+00 0.0000000000000000e+00  1.0811294537137470e+00 0.0000000000000000e+00 0.0000000000000000e+00  1.0878260322412499e+00 0.0000000000000000e+00 0.0000000000000000e+00  1.0991743042009849e+00 0.0000000000000000e+00 0.0000000000000000e+00  1.1132012169338434e+00 0.0000000000000000e+00 0.0000000000000000e+00  1.1263144263121914e+00 0.0000000000000000e+00 0.0000000000000000e+00  1.1367357368483173e+00 0.0000000000000000e+00 0.0000000000000000e+00  1.1417773385193994e+00 0.0000000000000000e+00 0.0000000000000000e+00  1.1405963119754639e+00 0.0000000000000000e+00 0.0000000000000000e+00  1.1326912751109692e+00 0.0000000000000000e+00 0.0000000000000000e+00  1.1212216200659799e+00 0.0000000000000000e+00 0.0000000000000000e+00  1.1073526900713047e+00 0.0000000000000000e+00 0.0000000000000000e+00  1.0933843507794514e+00 0.0000000000000000e+00 0.0000000000000000e+00  1.0813901378968509e+00 0.0000000000000000e+00 0.0000000000000000e+00  1.0717174807256529e+00 0.0000000000000000e+00 0.0000000000000000e+00  1.0653517385872988e+00 0.0000000000000000e+00 0.0000000000000000e+00  1.0608162007858140e+00 0.0000000000000000e+00 0.0000000000000000e+00  1.0592279414508416e+00 0.0000000000000000e+00 0.0000000000000000e+00  1.0591311525268792e+00 0.0000000000000000e+00 0.0000000000000000e+00  1.0607711488606524e+00 0.0000000000000000e+00 0.0000000000000000e+00  1.0620223463394980e+00 0.0000000000000000e+00 0.0000000000000000e+00  1.0634616286055076e+00 0.0000000000000000e+00 0.0000000000000000e+00  1.0630912833374875e+00 0.0000000000000000e+00 0.0000000000000000e+00  1.0637583040738925e+00 1.5828214873779632e-03 0.0000000000000000e+00  1.0669383186427726e+00 3.2086454049725073e-03 0.0000000000000000e+00  1.0723651828420075e+00 5.2987218179454849e-03 0.0000000000000000e+00  1.0783547045154942e+00 8.2815824501223118e-03 0.0000000000000000e+00  1.0859937174839784e+00 1.2943626898500990e-02 0.0000000000000000e+00  1.0876911000675547e+00 1.8753328777036643e-02 0.0000000000000000e+00  1.0688599590719545e+00 2.3989435270036143e-02 0.0000000000000000e+00  1.0173003646052858e+00 1.7653994443242962e-02 0.0000000000000000e+00  9.4409535665138411e-01 -2.9026370167949695e-03 0.0000000000000000e+00  8.7529538005922347e-01 -2.9845920298386303e-02 0.0000000000000000e+00  8.3079566576267827e-01 -5.4893538813283890e-02 0.0000000000000000e+00  8.2340661941171378e-01 -6.3142401342632368e-02 0.0000000000000000e+00  8.5798240138376158e-01 -5.1184787287401196e-02 0.0000000000000000e+00  9.1316759046345075e-01 -3.2118912244332241e-02 0.0000000000000000e+00  9.5884739164912069e-01 -2.2522857523035410e-02 0.0000000000000000e+00  9.8771128877941461e-01 -2.1555315612822333e-02 0.0000000000000000e+00  1.0053859419023874e+00 -2.2918495266190740e-02 0.0000000000000000e+00  1.0185870196023821e+00 -2.2665282650666630e-02 0.0000000000000000e+00  1.0283270338273776e+00 -2.0677838871201726e-02 0.0000000000000000e+00  1.0359485242683937e+00 -1.7593523811506636e-02 0.0000000000000000e+00  1.0401939835148224e+00 -1.3735547267940225e-02 0.0000000000000000e+00  1.0432482548962354e+00 -9.3934604786120503e-03 0.0000000000000000e+00  1.0442384284432944e+00 -4.8249124058396117e-03 0.0000000000000000e+00  1.0493856285327350e+00 0.0000000000000000e+00 0.0000000000000000e+00  1.0564152397565831e+00 0.0000000000000000e+00 0.0000000000000000e+00  1.0648294793871655e+00 0.0000000000000000e+00 0.0000000000000000e+00  1.0746183620722065e+00 0.0000000000000000e+00 0.0000000000000000e+00  1.0842566450260775e+00 0.0000000000000000e+00 0.0000000000000000e+00  1.0940260043703163e+00 0.0000000000000000e+00 0.0000000000000000e+00  1.1025217292936005e+00 0.0000000000000000e+00 0.0000000000000000e+00  1.1083826042323317e+00 0.0000000000000000e+00 0.0000000000000000e+00  1.1098696357350917e+00 0.0000000000000000e+00 0.0000000000000000e+00  1.1079027554663456e+00 0.0000000000000000e+00 0.0000000000000000e+00  1.1023668116951826e+00 0.0000000000000000e+00 0.0000000000000000e+00  1.0948502762956001e+00 0.0000000000000000e+00 0.0000000000000000e+00  1.0871995843865148e+00 0.0000000000000000e+00 0.0000000000000000e+00  1.0821648281267391e+00 0.0000000000000000e+00 0.0000000000000000e+00  1.0793587991482883e+00 0.0000000000000000e+00 0.0000000000000000e+00  1.0816271753901725e+00 0.0000000000000000e+00 0.0000000000000000e+00  1.0867443383015964e+00 0.0000000000000000e+00 0.0000000000000000e+00  1.0962991011385999e+00 0.0000000000000000e+00 0.0000000000000000e+00  1.1081888739803143e+00 0.0000000000000000e+00 0.0000000000000000e+00  1.1218633629699439e+00 0.0000000000000000e+00 0.0000000000000000e+00  1.1335699074910301e+00 0.0000000000000000e+00 0.0000000000000000e+00  1.1412486736448813e+00 0.0000000000000000e+00 0.0000000000000000e+00  1.1433164149665147e+00 0.0000000000000000e+00 0.0000000000000000e+00  1.1278327720657788e+00 0.0000000000000000e+00 0.0000000000000000e+00  1.1142373218996326e+00 0.0000000000000000e+00 0.0000000000000000e+00  1.0992407001569340e+00 0.0000000000000000e+00 0.0000000000000000e+00  1.0872754056442353e+00 0.0000000000000000e+00 0.0000000000000000e+00  1.0794948720122148e+00 0.0000000000000000e+00 0.0000000000000000e+00  1.0747912182669943e+00 0.0000000000000000e+00 0.0000000000000000e+00  1.0727106307178551e+00 0.0000000000000000e+00 0.0000000000000000e+00  1.0770398276347686e+00 0.0000000000000000e+00 0.0000000000000000e+00  1.0847457599058339e+00 0.0000000000000000e+00 0.0000000000000000e+00  1.0937168113178550e+00 0.0000000000000000e+00 0.0000000000000000e+00  1.1036650089197877e+00 0.0000000000000000e+00 0.0000000000000000e+00  1.1120069067508547e+00 0.0000000000000000e+00 0.0000000000000000e+00  1.1162887472665020e+00 0.0000000000000000e+00 0.0000000000000000e+00  1.1165648731266620e+00 0.0000000000000000e+00 0.0000000000000000e+00  1.1116015990149755e+00 0.0000000000000000e+00 0.0000000000000000e+00  1.1016474427607148e+00 0.0000000000000000e+00 0.0000000000000000e+00  1.0905644017060567e+00 0.0000000000000000e+00 0.0000000000000000e+00  1.0790836268888386e+00 0.0000000000000000e+00 0.0000000000000000e+00  1.0681989360778175e+00 0.0000000000000000e+00 0.0000000000000000e+00  1.0613895564734932e+00 0.0000000000000000e+00 0.0000000000000000e+00  1.0580902332684958e+00 0.0000000000000000e+00 0.0000000000000000e+00  1.0575269082343983e+00 0.0000000000000000e+00 0.0000000000000000e+00  1.0617196699369558e+00 0.0000000000000000e+00 0.0000000000000000e+00  1.0682337294968769e+00 0.0000000000000000e+00 0.0000000000000000e+00  1.0752078059576688e+00 0.0000000000000000e+00 0.0000000000000000e+00  1.0823756688620696e+00 0.0000000000000000e+00 0.0000000000000000e+00  1.0883603457263611e+00 0.0000000000000000e+00 0.0000000000000000e+00  1.0914912361738576e+00 0.0000000000000000e+00 0.0000000000000000e+00  1.0924065215314791e+00 0.0000000000000000e+00 0.0000000000000000e+00  1.0906788525891045e+00 0.0000000000000000e+00 0.0000000000000000e+00  1.0870561340254292e+00 0.0000000000000000e+00 0.0000000000000000e+00  1.0834555296645096e+00 0.0000000000000000e+00 0.0000000000000000e+00  1.0794133724621635e+00 0.0000000000000000e+00 0.0000000000000000e+00  1.0773977310715528e+00 0.0000000000000000e+00 0.0000000000000000e+00  1.0783729295548496e+00 0.0000000000000000e+00 0.0000000000000000e+00  1.0816476552459700e+00 0.0000000000000000e+00 0.0000000000000000e+00  1.0864210748935548e+00 0.0000000000000000e+00 0.0000000000000000e+00  1.0922747757758906e+00 0.0000000000000000e+00 0.0000000000000000e+00  1.0990611761240916e+00 0.0000000000000000e+00 0.0000000000000000e+00  1.1063999392288788e+00 0.0000000000000000e+00 0.0000000000000000e+00  1.1121551742380140e+00 0.0000000000000000e+00 0.0000000000000000e+00  1.1160084499220340e+00 0.0000000000000000e+00 0.0000000000000000e+00  1.1194032714630708e+00 0.0000000000000000e+00 0.0000000000000000e+00  1.1190500225748037e+00 0.0000000000000000e+00 0.0000000000000000e+00  1.1174303715106548e+00 0.0000000000000000e+00 0.0000000000000000e+00  1.1134454157332219e+00 0.0000000000000000e+00 0.0000000000000000e+00  1.1070433170911556e+00 0.0000000000000000e+00 0.0000000000000000e+00  1.0992625980812547e+00 0.0000000000000000e+00 0.0000000000000000e+00  1.0906211921286650e+00 0.0000000000000000e+00 0.0000000000000000e+00  1.0813053871503890e+00 0.0000000000000000e+00 0.0000000000000000e+00  1.0708878860386990e+00 0.0000000000000000e+00 0.0000000000000000e+00  1.0616057217006674e+00 0.0000000000000000e+00 0.0000000000000000e+00  1.0520101838307203e+00 0.0000000000000000e+00 0.0000000000000000e+00  1.0346314297096684e+00 0.0000000000000000e+00 0.0000000000000000e+00  1.0274007372672005e+00 0.0000000000000000e+00 0.0000000000000000e+00  1.0217332901702971e+00 0.0000000000000000e+00 0.0000000000000000e+00  1.0166938704294173e+00 0.0000000000000000e+00 0.0000000000000000e+00  1.0126462618936281e+00 0.0000000000000000e+00 0.0000000000000000e+00  1.0094672346283395e+00 0.0000000000000000e+00 0.0000000000000000e+00  1.0070682628059149e+00 0.0000000000000000e+00 0.0000000000000000e+00  1.0047858450681677e+00 0.0000000000000000e+00 0.0000000000000000e+00  1.0032584701925702e+00 0.0000000000000000e+00 0.0000000000000000e+00  1.0022222638064424e+00 0.0000000000000000e+00 0.0000000000000000e+00  1.0010777060175069e+00 0.0000000000000000e+00 0.0000000000000000e+00  1.0009788482221746e+00 0.0000000000000000e+00 0.0000000000000000e+00  1.0000058169888366e+00 0.0000000000000000e+00 0.0000000000000000e+00  1.0000586645395135e+00 0.0000000000000000e+00 0.0000000000000000e+00  9.9972611411726042e-01 0.0000000000000000e+00 0.0000000000000000e+00  1.0004400761813137e+00 0.0000000000000000e+00 0.0000000000000000e+00  1.0002336259944311e+00 0.0000000000000000e+00 0.0000000000000000e+00  9.9979541798549076e-01 0.0000000000000000e+00 0.0000000000000000e+00  1.0000001296212855e+00 0.0000000000000000e+00 0.0000000000000000e+00  1.0000001296212855e+00 0.0000000000000000e+00 0.0000000000000000e+00  1.0000001296212855e+00 0.0000000000000000e+00 0.0000000000000000e+00  1.0000001296212855e+00 0.0000000000000000e+00 0.0000000000000000e+00  1.0000001296212855e+00 0.0000000000000000e+00 0.0000000000000000e+00  1.0000001296212855e+00 0.0000000000000000e+00 0.0000000000000000e+00  1.0000001296212855e+00 0.0000000000000000e+00 0.0000000000000000e+00  1.0000001296212855e+00 0.0000000000000000e+00 0.0000000000000000e+00  1.0000001296212855e+00 0.0000000000000000e+00 0.0000000000000000e+00  1.0000001296212855e+00 0.0000000000000000e+00 0.0000000000000000e+00  1.0000001296212855e+00 0.0000000000000000e+00 0.0000000000000000e+00  1.0000001296212855e+00 0.0000000000000000e+00 0.0000000000000000e+00  1.0000001296212855e+00 0.0000000000000000e+00 0.0000000000000000e+00  1.0000001296212855e+00 0.0000000000000000e+00 0.0000000000000000e+00  1.0000001296212855e+00 0.0000000000000000e+00 0.0000000000000000e+00  1.0000001296212855e+00 0.0000000000000000e+00 0.0000000000000000e+00  1.0000001296212855e+00 0.0000000000000000e+00 0.0000000000000000e+00  1.0000001296212855e+00 0.0000000000000000e+00 0.0000000000000000e+00  1.0000001296212855e+00 0.0000000000000000e+00 0.0000000000000000e+00  1.0000001296212855e+00 0.0000000000000000e+00 0.0000000000000000e+00  1.0452579729686553e+00 -1.0451180484342730e-02 0.0000000000000000e+00  1.0420283201682563e+00 -2.1069827491894837e-02 0.0000000000000000e+00  1.0393502587568779e+00 -3.2402719899278079e-02 0.0000000000000000e+00  1.0329801640431209e+00 -4.4211420717076448e-02 0.0000000000000000e+00  1.0264556873753008e+00 -6.0208919225204383e-02 0.0000000000000000e+00  1.0311629876344963e+00 -6.3887270394171330e-02 0.0000000000000000e+00  1.0354615095988307e+00 -6.7649115900463339e-02 0.0000000000000000e+00  1.0408276775884444e+00 -7.1104951495562480e-02 0.0000000000000000e+00  1.0464742813794485e+00 -7.4411626192522451e-02 0.0000000000000000e+00  1.0527755419528562e+00 -7.7299491027308057e-02 0.0000000000000000e+00  1.0596819056224953e+00 -7.9823488739910964e-02 0.0000000000000000e+00  1.0670655721523674e+00 -8.1665663021268237e-02 0.0000000000000000e+00  1.0749801899712206e+00 -8.2953190889312328e-02 0.0000000000000000e+00  1.0830423123737054e+00 -8.3324409398958632e-02 0.0000000000000000e+00  1.0914513074554901e+00 -8.3020383035150774e-02 0.0000000000000000e+00  1.0999249647228957e+00 -8.1896391970055563e-02 0.0000000000000000e+00  1.1084830987806464e+00 -7.9657131531274031e-02 0.0000000000000000e+00  1.1166663597489956e+00 -7.6430322151421468e-02 0.0000000000000000e+00  1.1245572456797024e+00 -7.2426092761533833e-02 0.0000000000000000e+00  1.1319892381247390e+00 -6.7537342445410958e-02 0.0000000000000000e+00  1.1386955870168569e+00 -6.1777096877800593e-02 0.0000000000000000e+00  1.1447143558497499e+00 -5.5340982658571077e-02 0.0000000000000000e+00  1.1498339445891237e+00 -4.8322675193432231e-02 0.0000000000000000e+00  1.1540829604309972e+00 -4.0630210629690452e-02 0.0000000000000000e+00  1.1573420239021959e+00 -3.2781647313050499e-02 0.0000000000000000e+00  1.1595913112953509e+00 -2.4514977890335302e-02 0.0000000000000000e+00  1.1605707795675417e+00 -1.6025715524763430e-02 0.0000000000000000e+00  1.1606287399075090e+00 -7.6424192884200727e-03 0.0000000000000000e+00  1.1593555983653256e+00 5.2779192124301026e-04 0.0000000000000000e+00  1.1570177804444095e+00 8.3991419094392884e-03 0.0000000000000000e+00  1.1535099941963587e+00 1.5764291518667942e-02 0.0000000000000000e+00  1.1489135255933907e+00 2.2295194731452743e-02 0.0000000000000000e+00  1.1433851866464975e+00 2.8077501857909127e-02 0.0000000000000000e+00  1.1369572957634917e+00 3.2924289173851311e-02 0.0000000000000000e+00  1.1299524318427583e+00 3.6496543006436295e-02 0.0000000000000000e+00  1.1224400247156530e+00 3.88086024408