<?xml version="1.0"?>
<VTKFile type="UnstructuredGrid"  version="0.1"  >
<UnstructuredGrid>
<Piece  NumberOfPoints="10199" NumberOfCells="20110">
<Points>
<DataArray  type="Float64"  NumberOfComponents="3"  format="ascii">0 -5 0  8 -5 0  30 -5 0  40 -5 0  40 5 0  30 5 0  8 5 0  0 5 0  8 -2.5 0  15 -2.5 0  30 -2.5 0  30 2.5 0  15 2.5 0  8 2.5 0  10 0.5 0  10 -0.5 0  0 0 0  0.4210526315780956 -5 0  0.8421052631563433 -5 0  1.263157894734281 -5 0  1.684210526311999 -5 0  2.105263157889717 -5 0  2.526315789467435 -5 0  2.947368421045153 -5 0  3.368421052622872 -5 0  3.78947368420059 -5 0  4.210526315779479 -5 0  4.631578947359537 -5 0  5.052631578939595 -5 0  5.473684210519653 -5 0  5.89473684209971 -5 0  6.315789473679768 -5 0  6.736842105259826 -5 0  7.157894736839884 -5 0  7.578947368419942 -5 0  8.407407407405314 -5 0  8.814814814810628 -5 0  9.222222222215942 -5 0  9.629629629621256 -5 0  10.03703703702657 -5 0  10.44444444443188 -5 0  10.8518518518372 -5 0  11.25925925924251 -5 0  11.66666666664783 -5 0  12.07407407405314 -5 0  12.48148148145846 -5 0  12.88888888886377 -5 0  13.29629629626908 -5 0  13.7037037036744 -5 0  14.11111111107971 -5 0  14.51851851848502 -5 0  14.92592592589034 -5 0  15.33333333329565 -5 0  15.74074074070096 -5 0  16.14814814810754 -5 0  16.55555555551614 -5 0  16.96296296292474 -5 0  17.37037037033335 -5 0  17.77777777774195 -5 0  18.18518518515056 -5 0  18.59259259255916 -5 0  18.99999999996776 -5 0  19.40740740737636 -5 0  19.81481481478497 -5 0  20.22222222219357 -5 0  20.62962962960217 -5 0  21.03703703701077 -5 0  21.44444444441937 -5 0  21.85185185182797 -5 0  22.25925925923657 -5 0  22.66666666664518 -5 0  23.07407407405378 -5 0  23.48148148146238 -5 0  23.88888888887098 -5 0  24.29629629627958 -5 0  24.70370370368818 -5 0  25.11111111109678 -5 0  25.51851851850539 -5 0  25.92592592591399 -5 0  26.33333333332259 -5 0  26.74074074073119 -5 0  27.14814814813979 -5 0  27.55555555554839 -5 0  27.96296296295699 -5 0  28.3703703703656 -5 0  28.7777777777742 -5 0  29.1851851851828 -5 0  29.5925925925914 -5 0  30.41666666667852 -5 0  30.83333333335704 -5 0  31.25000000003556 -5 0  31.66666666671408 -5 0  32.08333333338936 -5 0  32.50000000005308 -5 0  32.9166666667168 -5 0  33.33333333338052 -5 0  33.75000000004424 -5 0  34.16666666670795 -5 0  34.58333333337167 -5 0  35.00000000003539 -5 0  35.41666666669911 -5 0  35.83333333336282 -5 0  36.25000000002654 -5 0  36.66666666669026 -5 0  37.08333333335398 -5 0  37.50000000001769 -5 0  37.91666666668141 -5 0  38.33333333334513 -5 0  38.75000000000885 -5 0  39.16666666667257 -5 0  39.58333333333628 -5 0  40 -4.583333333332821 0  40 -4.166666666665642 0  40 -3.74999999999855 0  40 -3.333333333333135 0  40 -2.916666666667806 0  40 -2.500000000002478 0  40 -2.083333333337148 0  40 -1.666666666671818 0  40 -1.250000000006488 0  40 -0.8333333333405228 0  40 -0.4166666666733416 0  40 -6.163070054299169e-12 0  40 0.4166666666610173 0  40 0.8333333333281976 0  40 1.249999999995378 0  40 1.666666666662558 0  40 2.083333333329739 0  40 2.499999999996919 0  40 2.916666666664099 0  40 3.33333333333128 0  40 3.74999999999846 0  40 4.166666666665641 0  40 4.583333333332821 0  39.58333333333628 5 0  39.16666666667256 5 0  38.75000000000885 5 0  38.33333333334513 5 0  37.91666666668141 5 0  37.50000000001769 5 0  37.08333333335398 5 0  36.66666666669025 5 0  36.25000000002654 5 0  35.83333333336282 5 0  35.41666666669911 5 0  35.00000000003539 5 0  34.58333333337167 5 0  34.16666666670795 5 0  33.75000000004424 5 0  33.33333333338052 5 0  32.9166666667168 5 0  32.50000000005308 5 0  32.08333333338936 5 0  31.66666666671408 5 0  31.25000000003556 5 0  30.83333333335704 5 0  30.41666666667852 5 0  29.59259259259259 5 0  29.18518518518519 5 0  28.77777777777778 5 0  28.37037037037037 5 0  27.96296296296296 5 0  27.55555555555556 5 0  27.14814814814815 5 0  26.74074074074074 5 0  26.33333333333333 5 0  25.92592592592593 5 0  25.51851851851852 5 0  25.11111111111111 5 0  24.7037037037037 5 0  24.2962962962963 5 0  23.88888888888889 5 0  23.48148148148148 5 0  23.07407407407408 5 0  22.66666666666667 5 0  22.25925925925926 5 0  21.85185185185185 5 0  21.44444444444445 5 0  21.03703703703704 5 0  20.62962962962963 5 0  20.22222222222222 5 0  19.81481481481482 5 0  19.40740740740741 5 0  19 5 0  18.5925925925926 5 0  18.18518518518519 5 0  17.77777777777778 5 0  17.37037037037037 5 0  16.96296296296296 5 0  16.55555555555556 5 0  16.14814814814815 5 0  15.74074074074074 5 0  15.33333333333333 5 0  14.92592592592593 5 0  14.51851851851852 5 0  14.11111111111111 5 0  13.70370370370371 5 0  13.2962962962963 5 0  12.88888888888889 5 0  12.48148148148148 5 0  12.07407407407408 5 0  11.66666666666667 5 0  11.25925925925926 5 0  10.85185185185185 5 0  10.44444444444445 5 0  10.03703703703704 5 0  9.629629629629633 5 0  9.222222222222221 5 0  8.814814814814817 5 0  8.407407407407408 5 0  7.5789473684193 5 0  7.157894736838599 5 0  6.73684210526082 5 0  6.315789473684795 5 0  5.894736842108769 5 0  5.473684210532742 5 0  5.052631578956715 5 0  4.631578947380689 5 0  4.210526315804662 5 0  3.789473684226299 5 0  3.368421052645599 5 0  2.947368421064898 5 0  2.526315789484198 5 0  2.105263157903499 5 0  1.6842105263228 5 0  1.2631578947421 5 0  0.8421052631613994 5 0  0.4210526315806993 5 0  0 4.545454545454545 0  0 4.09090909090909 0  0 3.636363636363634 0  0 3.18181818181818 0  0 2.727272727272726 0  0 2.272727272727271 0  0 1.818181818181817 0  0 1.363636363636363 0  0 0.9090909090909092 0  0 0.454545454545455 0  0 -0.4545454545450807 0  0 -0.9090909090895867 0  0 -1.363636363633713 0  0 -1.818181818177841 0  0 -2.272727272723127 0  0 -2.727272727269273 0  0 -3.181818181815419 0  0 -3.636363636361564 0  0 -4.090909090907709 0  0 -4.545454545453855 0  8 -4.499999999999999 0  8 -3.999999999999999 0  8 -3.499999999999999 0  8 -3 0  8.137254901963859 -2.5 0  8.274509803926303 -2.5 0  8.411764705886863 -2.5 0  8.549019607849138 -2.5 0  8.686274509809513 -2.5 0  8.82352941176989 -2.5 0  8.960784313730265 -2.5 0  9.098039215690642 -2.5 0  9.235294117651017 -2.5 0  9.372549019611395 -2.5 0  9.50980392157177 -2.5 0  9.647058823532147 -2.5 0  9.784313725492522 -2.5 0  9.921568627452897 -2.5 0  10.05882352941327 -2.5 0  10.19607843137365 -2.5 0  10.33333333333402 -2.5 0  10.4705882352944 -2.5 0  10.60784313725478 -2.5 0  10.74509803921515 -2.5 0  10.88235294117553 -2.5 0  11.0196078431359 -2.5 0  11.15686274509628 -2.5 0  11.29411764705665 -2.5 0  11.43137254901703 -2.5 0  11.56862745097915 -2.5 0  11.70588235294301 -2.5 0  11.84313725490686 -2.5 0  11.98039215687072 -2.5 0  12.11764705883209 -2.5 0  12.25490196079247 -2.5 0  12.39215686275285 -2.5 0  12.52941176471322 -2.5 0  12.6666666666736 -2.5 0  12.80392156863397 -2.5 0  12.94117647059435 -2.5 0  13.07843137255473 -2.5 0  13.2156862745151 -2.5 0  13.35294117647548 -2.5 0  13.49019607843586 -2.5 0  13.62745098039623 -2.5 0  13.76470588235661 -2.5 0  13.90196078431699 -2.5 0  14.03921568627736 -2.5 0  14.17647058823774 -2.5 0  14.31372549019812 -2.5 0  14.45098039215849 -2.5 0  14.58823529411887 -2.5 0  14.72549019607925 -2.5 0  14.86274509803962 -2.5 0  15.20270270270254 -2.5 0  15.40540540540509 -2.5 0  15.60810810810763 -2.5 0  15.81081081081017 -2.5 0  16.01351351351227 -2.5 0  16.21621621621265 -2.5 0  16.41891891891279 -2.5 0  16.62162162161294 -2.5 0  16.82432432431308 -2.5 0  17.02702702701322 -2.5 0  17.22972972971337 -2.5 0  17.43243243241351 -2.5 0  17.63513513511365 -2.5 0  17.83783783781379 -2.5 0  18.04054054051394 -2.5 0  18.24324324321408 -2.5 0  18.44594594591422 -2.5 0  18.64864864861436 -2.5 0  18.85135135131451 -2.5 0  19.05405405401465 -2.5 0  19.25675675671479 -2.5 0  19.45945945941494 -2.5 0  19.66216216211508 -2.5 0  19.86486486481522 -2.5 0  20.06756756751536 -2.5 0  20.27027027021551 -2.5 0  20.47297297291565 -2.5 0  20.6756756756158 -2.5 0  20.87837837831594 -2.5 0  21.08108108101608 -2.5 0  21.28378378371622 -2.5 0  21.48648648641637 -2.5 0  21.68918918911651 -2.5 0  21.89189189181666 -2.5 0  22.0945945945168 -2.5 0  22.29729729721694 -2.5 0  22.49999999991778 -2.5 0  22.70270270262203 -2.5 0  22.90540540532697 -2.5 0  23.10810810803191 -2.5 0  23.31081081073686 -2.5 0  23.5135135134418 -2.5 0  23.71621621614674 -2.5 0  23.91891891885169 -2.5 0  24.12162162155663 -2.5 0  24.32432432426158 -2.5 0  24.52702702696652 -2.5 0  24.72972972967146 -2.5 0  24.93243243237641 -2.5 0  25.13513513508135 -2.5 0  25.3378378377863 -2.5 0  25.54054054049124 -2.5 0  25.74324324319618 -2.5 0  25.94594594590112 -2.5 0  26.14864864860607 -2.5 0  26.35135135131101 -2.5 0  26.55405405401596 -2.5 0  26.7567567567209 -2.5 0  26.95945945942584 -2.5 0  27.16216216213079 -2.5 0  27.36486486483573 -2.5 0  27.56756756754068 -2.5 0  27.77027027024562 -2.5 0  27.97297297295056 -2.5 0  28.1756756756555 -2.5 0  28.37837837836045 -2.5 0  28.5810810810654 -2.5 0  28.78378378377034 -2.5 0  28.98648648647528 -2.5 0  29.18918918918023 -2.5 0  29.39189189188517 -2.5 0  29.59459459459011 -2.5 0  29.79729729729506 -2.5 0  30 -3.000000000000001 0  30 -3.500000000000001 0  30 -4.000000000000001 0  30 -4.5 0  8 4.499999999999999 0  8 3.999999999999999 0  8 3.499999999999999 0  8 3 0  8.137254901963859 2.5 0  8.274509803926303 2.5 0  8.411764705886863 2.5 0  8.549019607849138 2.5 0  8.686274509809513 2.5 0  8.82352941176989 2.5 0  8.960784313730265 2.5 0  9.098039215690642 2.5 0  9.235294117651017 2.5 0  9.372549019611395 2.5 0  9.50980392157177 2.5 0  9.647058823532147 2.5 0  9.784313725492522 2.5 0  9.921568627452897 2.5 0  10.05882352941327 2.5 0  10.19607843137365 2.5 0  10.33333333333402 2.5 0  10.4705882352944 2.5 0  10.60784313725478 2.5 0  10.74509803921515 2.5 0  10.88235294117553 2.5 0  11.0196078431359 2.5 0  11.15686274509628 2.5 0  11.29411764705665 2.5 0  11.43137254901703 2.5 0  11.56862745097915 2.5 0  11.70588235294301 2.5 0  11.84313725490686 2.5 0  11.98039215687072 2.5 0  12.11764705883209 2.5 0  12.25490196079247 2.5 0  1
[...]
<PointData  Vectors="f_17"> 
<DataArray  type="Float64"  Name="f_17"  NumberOfComponents="3" format="ascii">1.0000001326214474e+00 0.0000000000000000e+00 0.0000000000000000e+00  1.0422278691528326e+00 0.0000000000000000e+00 0.0000000000000000e+00  1.0609931438522682e+00 0.0000000000000000e+00 0.0000000000000000e+00  1.0900309704563056e+00 0.0000000000000000e+00 0.0000000000000000e+00  1.0774296943240955e+00 0.0000000000000000e+00 0.0000000000000000e+00  1.0531497616287675e+00 0.0000000000000000e+00 0.0000000000000000e+00  1.0387090698221197e+00 0.0000000000000000e+00 0.0000000000000000e+00  1.0000001326214474e+00 0.0000000000000000e+00 0.0000000000000000e+00  1.0256791890580075e+00 -5.1444843683480165e-02 0.0000000000000000e+00  1.1351056350721249e+00 3.9563309859540374e-02 0.0000000000000000e+00  1.1323034744761364e+00 -7.2891295097350775e-02 0.0000000000000000e+00  1.0117273227811974e+00 -6.3399113537207938e-02 0.0000000000000000e+00  9.8563578038703248e-01 -1.8189940281695932e-02 0.0000000000000000e+00  1.0171339606095151e+00 5.0246725930594600e-02 0.0000000000000000e+00  0.0000000000000000e+00 0.0000000000000000e+00 0.0000000000000000e+00  0.0000000000000000e+00 0.0000000000000000e+00 0.0000000000000000e+00  1.0000001326214474e+00 0.0000000000000000e+00 0.0000000000000000e+00  9.9930966895319806e-01 0.0000000000000000e+00 0.0000000000000000e+00  9.9881500170032012e-01 0.0000000000000000e+00 0.0000000000000000e+00  1.0009415359769527e+00 0.0000000000000000e+00 0.0000000000000000e+00  1.0008778802095746e+00 0.0000000000000000e+00 0.0000000000000000e+00  1.0019940974031525e+00 0.0000000000000000e+00 0.0000000000000000e+00  1.0024651866059253e+00 0.0000000000000000e+00 0.0000000000000000e+00  1.0029032919673531e+00 0.0000000000000000e+00 0.0000000000000000e+00  1.0038408926954971e+00 0.0000000000000000e+00 0.0000000000000000e+00  1.0051612675566979e+00 0.0000000000000000e+00 0.0000000000000000e+00  1.0063330397510402e+00 0.0000000000000000e+00 0.0000000000000000e+00  1.0078445311368327e+00 0.0000000000000000e+00 0.0000000000000000e+00  1.0100682085051367e+00 0.0000000000000000e+00 0.0000000000000000e+00  1.0124115869269785e+00 0.0000000000000000e+00 0.0000000000000000e+00  1.0163352037556985e+00 0.0000000000000000e+00 0.0000000000000000e+00  1.0180393925051499e+00 0.0000000000000000e+00 0.0000000000000000e+00  1.0225589784496611e+00 0.0000000000000000e+00 0.0000000000000000e+00  1.0292285708165818e+00 0.0000000000000000e+00 0.0000000000000000e+00  1.0345282456759739e+00 0.0000000000000000e+00 0.0000000000000000e+00  1.0498314544262646e+00 0.0000000000000000e+00 0.0000000000000000e+00  1.0576725429051756e+00 0.0000000000000000e+00 0.0000000000000000e+00  1.0646716530293820e+00 0.0000000000000000e+00 0.0000000000000000e+00  1.0717843689907454e+00 0.0000000000000000e+00 0.0000000000000000e+00  1.0771013261900344e+00 0.0000000000000000e+00 0.0000000000000000e+00  1.0813825722306429e+00 0.0000000000000000e+00 0.0000000000000000e+00  1.0850517537826310e+00 0.0000000000000000e+00 0.0000000000000000e+00  1.0861823602789686e+00 0.0000000000000000e+00 0.0000000000000000e+00  1.0867208697534179e+00 0.0000000000000000e+00 0.0000000000000000e+00  1.0862706597818081e+00 0.0000000000000000e+00 0.0000000000000000e+00  1.0858559085277057e+00 0.0000000000000000e+00 0.0000000000000000e+00  1.0843824663117583e+00 0.0000000000000000e+00 0.0000000000000000e+00  1.0839095017757978e+00 0.0000000000000000e+00 0.0000000000000000e+00  1.0830983057358221e+00 0.0000000000000000e+00 0.0000000000000000e+00  1.0814847203570104e+00 0.0000000000000000e+00 0.0000000000000000e+00  1.0792188942680694e+00 0.0000000000000000e+00 0.0000000000000000e+00  1.0754845854116628e+00 0.0000000000000000e+00 0.0000000000000000e+00  1.0703813965867961e+00 0.0000000000000000e+00 0.0000000000000000e+00  1.0637355066528276e+00 0.0000000000000000e+00 0.0000000000000000e+00  1.0562548456107179e+00 0.0000000000000000e+00 0.0000000000000000e+00  1.0500302298333151e+00 0.0000000000000000e+00 0.0000000000000000e+00  1.0453788011267438e+00 0.0000000000000000e+00 0.0000000000000000e+00  1.0413390187598819e+00 0.0000000000000000e+00 0.0000000000000000e+00  1.0406006304521336e+00 0.0000000000000000e+00 0.0000000000000000e+00  1.0421666623296029e+00 0.0000000000000000e+00 0.0000000000000000e+00  1.0457465520438365e+00 0.0000000000000000e+00 0.0000000000000000e+00  1.0510879516827254e+00 0.0000000000000000e+00 0.0000000000000000e+00  1.0561511176761298e+00 0.0000000000000000e+00 0.0000000000000000e+00  1.0602349438214953e+00 0.0000000000000000e+00 0.0000000000000000e+00  1.0628000630717678e+00 0.0000000000000000e+00 0.0000000000000000e+00  1.0620445693161640e+00 0.0000000000000000e+00 0.0000000000000000e+00  1.0589486874585958e+00 0.0000000000000000e+00 0.0000000000000000e+00  1.0556112674423990e+00 0.0000000000000000e+00 0.0000000000000000e+00  1.0506327601607532e+00 0.0000000000000000e+00 0.0000000000000000e+00  1.0459395878397586e+00 0.0000000000000000e+00 0.0000000000000000e+00  1.0436723464029944e+00 0.0000000000000000e+00 0.0000000000000000e+00  1.0425514376688196e+00 0.0000000000000000e+00 0.0000000000000000e+00  1.0434900986173845e+00 0.0000000000000000e+00 0.0000000000000000e+00  1.0479349619473421e+00 0.0000000000000000e+00 0.0000000000000000e+00  1.0525826874142945e+00 0.0000000000000000e+00 0.0000000000000000e+00  1.0573206177134151e+00 0.0000000000000000e+00 0.0000000000000000e+00  1.0620145412126181e+00 0.0000000000000000e+00 0.0000000000000000e+00  1.0642301384975785e+00 0.0000000000000000e+00 0.0000000000000000e+00  1.0641843440579246e+00 0.0000000000000000e+00 0.0000000000000000e+00  1.0626421842209002e+00 0.0000000000000000e+00 0.0000000000000000e+00  1.0587293555264587e+00 0.0000000000000000e+00 0.0000000000000000e+00  1.0540136047545641e+00 0.0000000000000000e+00 0.0000000000000000e+00  1.0522330929603034e+00 0.0000000000000000e+00 0.0000000000000000e+00  1.0498143365654868e+00 0.0000000000000000e+00 0.0000000000000000e+00  1.0475842450565676e+00 0.0000000000000000e+00 0.0000000000000000e+00  1.0484888094044471e+00 0.0000000000000000e+00 0.0000000000000000e+00  1.0524992422569417e+00 0.0000000000000000e+00 0.0000000000000000e+00  1.0566434117292030e+00 0.0000000000000000e+00 0.0000000000000000e+00  1.0642208838522573e+00 0.0000000000000000e+00 0.0000000000000000e+00  1.0648732024274186e+00 0.0000000000000000e+00 0.0000000000000000e+00  1.0634651208300983e+00 0.0000000000000000e+00 0.0000000000000000e+00  1.0613073486970095e+00 0.0000000000000000e+00 0.0000000000000000e+00  1.0578763598736318e+00 0.0000000000000000e+00 0.0000000000000000e+00  1.0541176389675204e+00 0.0000000000000000e+00 0.0000000000000000e+00  1.0512475723589634e+00 0.0000000000000000e+00 0.0000000000000000e+00  1.0504932523338506e+00 0.0000000000000000e+00 0.0000000000000000e+00  1.0516987644823326e+00 0.0000000000000000e+00 0.0000000000000000e+00  1.0542862882023203e+00 0.0000000000000000e+00 0.0000000000000000e+00  1.0585758990409708e+00 0.0000000000000000e+00 0.0000000000000000e+00  1.0629044553403197e+00 0.0000000000000000e+00 0.0000000000000000e+00  1.0662367434564017e+00 0.0000000000000000e+00 0.0000000000000000e+00  1.0686763284129157e+00 0.0000000000000000e+00 0.0000000000000000e+00  1.0692473152646169e+00 0.0000000000000000e+00 0.0000000000000000e+00  1.0687698780269368e+00 0.0000000000000000e+00 0.0000000000000000e+00  1.0664025795873624e+00 0.0000000000000000e+00 0.0000000000000000e+00  1.0645173733522162e+00 0.0000000000000000e+00 0.0000000000000000e+00  1.0632912593966797e+00 0.0000000000000000e+00 0.0000000000000000e+00  1.0644934896560121e+00 0.0000000000000000e+00 0.0000000000000000e+00  1.0675294870618159e+00 0.0000000000000000e+00 0.0000000000000000e+00  1.0738156140001271e+00 0.0000000000000000e+00 0.0000000000000000e+00  1.0810998822155193e+00 0.0000000000000000e+00 0.0000000000000000e+00  1.0909856126159712e+00 -8.9276688471269499e-03 0.0000000000000000e+00  1.0930109463955817e+00 -1.9716759648048671e-02 0.0000000000000000e+00  1.0963041051247482e+00 -3.4364239188031352e-02 0.0000000000000000e+00  1.0995009812396015e+00 -5.5991949771061103e-02 0.0000000000000000e+00  1.1063142545142932e+00 -9.1656033426665326e-02 0.0000000000000000e+00  1.1110370629108706e+00 -1.4175298246855980e-01 0.0000000000000000e+00  1.0932612680969549e+00 -2.0608316923397571e-01 0.0000000000000000e+00  1.0324518269677556e+00 -2.6297662112174186e-01 0.0000000000000000e+00  9.3054615419327968e-01 -2.9573936192969319e-01 0.0000000000000000e+00  8.2364704147136314e-01 -2.9559242290922677e-01 0.0000000000000000e+00  7.5100430894432246e-01 -2.7824458336712254e-01 0.0000000000000000e+00  7.3296472746287944e-01 -2.5704512829469445e-01 0.0000000000000000e+00  7.6399128538312999e-01 -2.3522949989408418e-01 0.0000000000000000e+00  8.3127139641821346e-01 -2.0787307200111005e-01 0.0000000000000000e+00  9.1056289341659424e-01 -1.7780311794067769e-01 0.0000000000000000e+00  9.8144499729065682e-01 -1.3759904059785802e-01 0.0000000000000000e+00  1.0293001288088075e+00 -9.8001786849982925e-02 0.0000000000000000e+00  1.0564387786920666e+00 -6.0763565892430885e-02 0.0000000000000000e+00  1.0685868608375149e+00 -3.4958172506927607e-02 0.0000000000000000e+00  1.0746741346675164e+00 -1.8714888122844827e-02 0.0000000000000000e+00  1.0770167262997472e+00 -9.6020542251435866e-03 0.0000000000000000e+00  1.0783542534831057e+00 -4.6991625478901055e-03 0.0000000000000000e+00  1.0780405777647246e+00 -1.9092101220030348e-03 0.0000000000000000e+00  1.0790034645853446e+00 0.0000000000000000e+00 0.0000000000000000e+00  1.0803098301152887e+00 0.0000000000000000e+00 0.0000000000000000e+00  1.0804126336484154e+00 0.0000000000000000e+00 0.0000000000000000e+00  1.0790059774339629e+00 0.0000000000000000e+00 0.0000000000000000e+00  1.0751306688587876e+00 0.0000000000000000e+00 0.0000000000000000e+00  1.0703881590337656e+00 0.0000000000000000e+00 0.0000000000000000e+00  1.0652847501455700e+00 0.0000000000000000e+00 0.0000000000000000e+00  1.0607904408831899e+00 0.0000000000000000e+00 0.0000000000000000e+00  1.0571174437739501e+00 0.0000000000000000e+00 0.0000000000000000e+00  1.0556933022721839e+00 0.0000000000000000e+00 0.0000000000000000e+00  1.0563748528690555e+00 0.0000000000000000e+00 0.0000000000000000e+00  1.0585095460037257e+00 0.0000000000000000e+00 0.0000000000000000e+00  1.0616174983811502e+00 0.0000000000000000e+00 0.0000000000000000e+00  1.0651754528604851e+00 0.0000000000000000e+00 0.0000000000000000e+00  1.0668854119857512e+00 0.0000000000000000e+00 0.0000000000000000e+00  1.0677950392667761e+00 0.0000000000000000e+00 0.0000000000000000e+00  1.0654855271137391e+00 0.0000000000000000e+00 0.0000000000000000e+00  1.0621139900027297e+00 0.0000000000000000e+00 0.0000000000000000e+00  1.0576957228556527e+00 0.0000000000000000e+00 0.0000000000000000e+00  1.0538983138630498e+00 0.0000000000000000e+00 0.0000000000000000e+00  1.0510040058493126e+00 0.0000000000000000e+00 0.0000000000000000e+00  1.0494244578537266e+00 0.0000000000000000e+00 0.0000000000000000e+00  1.0504591293060170e+00 0.0000000000000000e+00 0.0000000000000000e+00  1.0561015553918496e+00 0.0000000000000000e+00 0.0000000000000000e+00  1.0601316720598231e+00 0.0000000000000000e+00 0.0000000000000000e+00  1.0621641513426094e+00 0.0000000000000000e+00 0.0000000000000000e+00  1.0640961472036459e+00 0.0000000000000000e+00 0.0000000000000000e+00  1.0647953589582824e+00 0.0000000000000000e+00 0.0000000000000000e+00  1.0623118705158696e+00 0.0000000000000000e+00 0.0000000000000000e+00  1.0565303589924280e+00 0.0000000000000000e+00 0.0000000000000000e+00  1.0526906925444450e+00 0.0000000000000000e+00 0.0000000000000000e+00  1.0492378835875527e+00 0.0000000000000000e+00 0.0000000000000000e+00  1.0463630070193823e+00 0.0000000000000000e+00 0.0000000000000000e+00  1.0460894226855444e+00 0.0000000000000000e+00 0.0000000000000000e+00  1.0478696536559551e+00 0.0000000000000000e+00 0.0000000000000000e+00  1.0505988055112574e+00 0.0000000000000000e+00 0.0000000000000000e+00  1.0549716011736483e+00 0.0000000000000000e+00 0.0000000000000000e+00  1.0591131147402417e+00 0.0000000000000000e+00 0.0000000000000000e+00  1.0612400077060897e+00 0.0000000000000000e+00 0.0000000000000000e+00  1.0625386181845340e+00 0.0000000000000000e+00 0.0000000000000000e+00  1.0613409396950175e+00 0.0000000000000000e+00 0.0000000000000000e+00  1.0570424873192594e+00 0.0000000000000000e+00 0.0000000000000000e+00  1.0522585887884639e+00 0.0000000000000000e+00 0.0000000000000000e+00  1.0469140302525517e+00 0.0000000000000000e+00 0.0000000000000000e+00  1.0412365121219460e+00 0.0000000000000000e+00 0.0000000000000000e+00  1.0388980614288461e+00 0.0000000000000000e+00 0.0000000000000000e+00  1.0387130612477591e+00 0.0000000000000000e+00 0.0000000000000000e+00  1.0402366334819049e+00 0.0000000000000000e+00 0.0000000000000000e+00  1.0442589651639436e+00 0.0000000000000000e+00 0.0000000000000000e+00  1.0496783846258244e+00 0.0000000000000000e+00 0.0000000000000000e+00  1.0550541709848882e+00 0.0000000000000000e+00 0.0000000000000000e+00  1.0601392939798715e+00 0.0000000000000000e+00 0.0000000000000000e+00  1.0636333814124579e+00 0.0000000000000000e+00 0.0000000000000000e+00  1.0647916976779142e+00 0.0000000000000000e+00 0.0000000000000000e+00  1.0646109610892183e+00 0.0000000000000000e+00 0.0000000000000000e+00  1.0618100028942055e+00 0.0000000000000000e+00 0.0000000000000000e+00  1.0587593524208614e+00 0.0000000000000000e+00 0.0000000000000000e+00  1.0570728885282119e+00 0.0000000000000000e+00 0.0000000000000000e+00  1.0566329654942910e+00 0.0000000000000000e+00 0.0000000000000000e+00  1.0577033247987007e+00 0.0000000000000000e+00 0.0000000000000000e+00  1.0605948993330809e+00 0.0000000000000000e+00 0.0000000000000000e+00  1.0657547828654232e+00 0.0000000000000000e+00 0.0000000000000000e+00  1.0730042153847146e+00 0.0000000000000000e+00 0.0000000000000000e+00  1.0800406939906548e+00 0.0000000000000000e+00 0.0000000000000000e+00  1.0864154573586040e+00 0.0000000000000000e+00 0.0000000000000000e+00  1.0930793663341365e+00 0.0000000000000000e+00 0.0000000000000000e+00  1.0961948526165823e+00 0.0000000000000000e+00 0.0000000000000000e+00  1.0980017634597663e+00 0.0000000000000000e+00 0.0000000000000000e+00  1.0970431262372411e+00 0.0000000000000000e+00 0.0000000000000000e+00  1.0932637624455497e+00 0.0000000000000000e+00 0.0000000000000000e+00  1.0876183386496099e+00 0.0000000000000000e+00 0.0000000000000000e+00  1.0807369189543345e+00 0.0000000000000000e+00 0.0000000000000000e+00  1.0728717143354287e+00 0.0000000000000000e+00 0.0000000000000000e+00  1.0636904927002024e+00 0.0000000000000000e+00 0.0000000000000000e+00  1.0554634923123416e+00 0.0000000000000000e+00 0.0000000000000000e+00  1.0468076758625136e+00 0.0000000000000000e+00 0.0000000000000000e+00  1.0310116924105754e+00 0.0000000000000000e+00 0.0000000000000000e+00  1.0244390377882724e+00 0.0000000000000000e+00 0.0000000000000000e+00  1.0192923088818997e+00 0.0000000000000000e+00 0.0000000000000000e+00  1.0147187397786184e+00 0.0000000000000000e+00 0.0000000000000000e+00  1.0109869386305737e+00 0.0000000000000000e+00 0.0000000000000000e+00  1.0080616933170519e+00 0.0000000000000000e+00 0.0000000000000000e+00  1.0058609161478309e+00 0.0000000000000000e+00 0.0000000000000000e+00  1.0037258902798281e+00 0.0000000000000000e+00 0.0000000000000000e+00  1.0023171060094922e+00 0.0000000000000000e+00 0.0000000000000000e+00  1.0013767522903441e+00 0.0000000000000000e+00 0.0000000000000000e+00  1.0003351099393865e+00 0.0000000000000000e+00 0.0000000000000000e+00  1.0003532685854171e+00 0.0000000000000000e+00 0.0000000000000000e+00  9.9950150870363441e-01 0.0000000000000000e+00 0.0000000000000000e+00  9.9967783712782099e-01 0.0000000000000000e+00 0.0000000000000000e+00  9.9947167596641828e-01 0.0000000000000000e+00 0.0000000000000000e+00  1.0003106689693249e+00 0.0000000000000000e+00 0.0000000000000000e+00  1.0001776240336493e+00 0.0000000000000000e+00 0.0000000000000000e+00  9.9978783709184382e-01 0.0000000000000000e+00 0.0000000000000000e+00  1.0000001326214474e+00 0.0000000000000000e+00 0.0000000000000000e+00  1.0000001326214474e+00 0.0000000000000000e+00 0.0000000000000000e+00  1.0000001326214474e+00 0.0000000000000000e+00 0.0000000000000000e+00  1.0000001326214474e+00 0.0000000000000000e+00 0.0000000000000000e+00  1.0000001326214474e+00 0.0000000000000000e+00 0.0000000000000000e+00  1.0000001326214474e+00 0.0000000000000000e+00 0.0000000000000000e+00  1.0000001326214474e+00 0.0000000000000000e+00 0.0000000000000000e+00  1.0000001326214474e+00 0.0000000000000000e+00 0.0000000000000000e+00  1.0000001326214474e+00 0.0000000000000000e+00 0.0000000000000000e+00  1.0000001326214474e+00 0.0000000000000000e+00 0.0000000000000000e+00  1.0000001326214474e+00 0.0000000000000000e+00 0.0000000000000000e+00  1.0000001326214474e+00 0.0000000000000000e+00 0.0000000000000000e+00  1.0000001326214474e+00 0.0000000000000000e+00 0.0000000000000000e+00  1.0000001326214474e+00 0.0000000000000000e+00 0.0000000000000000e+00  1.0000001326214474e+00 0.0000000000000000e+00 0.0000000000000000e+00  1.0000001326214474e+00 0.0000000000000000e+00 0.0000000000000000e+00  1.0000001326214474e+00 0.0000000000000000e+00 0.0000000000000000e+00  1.0000001326214474e+00 0.0000000000000000e+00 0.0000000000000000e+00  1.0000001326214474e+00 0.0000000000000000e+00 0.0000000000000000e+00  1.0000001326214474e+00 0.0000000000000000e+00 0.0000000000000000e+00  1.0417505767877746e+00 -9.0005656230657399e-03 0.0000000000000000e+00  1.0392052870785933e+00 -1.8289757832750799e-02 0.0000000000000000e+00  1.0376988606504660e+00 -2.8646576827914452e-02 0.0000000000000000e+00  1.0330093657258805e+00 -3.9674271658990380e-02 0.0000000000000000e+00  1.0286328390707731e+00 -5.4787371387012285e-02 0.0000000000000000e+00  1.0334038760246282e+00 -5.7701060372194184e-02 0.0000000000000000e+00  1.0377200450597850e+00 -6.0615705880241871e-02 0.0000000000000000e+00  1.0430731547471943e+00 -6.3111620632143872e-02 0.0000000000000000e+00  1.0486341695680479e+00 -6.5361863466141479e-02 0.0000000000000000e+00  1.0547858439028008e+00 -6.7062761028997109e-02 0.0000000000000000e+00  1.0614549153216171e+00 -6.8298000578460624e-02 0.0000000000000000e+00  1.0684611813421836e+00 -6.8736457655817360e-02 0.0000000000000000e+00  1.0758889242565033e+00 -6.8485972547087187e-02 0.0000000000000000e+00  1.0832595184870757e+00 -6.7205994666783439e-02 0.0000000000000000e+00  1.0907934178621721e+00 -6.5166427448375960e-02 0.0000000000000000e+00  1.0981120467588585e+00 -6.2264676382013981e-02 0.0000000000000000e+00  1.1052879187845472e+00 -5.8163062192177498e-02 0.0000000000000000e+00  1.1117709947326511e+00 -5.3033436296839875e-02 0.0000000000000000e+00  1.1175988328875648e+00 -4.7206260516882183e-02 0.0000000000000000e+00  1.1225994698367863e+00 -4.0581498521969434e-02 0.0000000000000000e+00  1.1265120075734236e+00 -3.3292911398307826e-02 0.0000000000000000e+00  1.1292853516683581e+00 -2.5549903545217537e-02 0.0000000000000000e+00  1.1308639609377074e+00 -1.7626887451762541e-02 0.0000000000000000e+00  1.1311763740440206e+00 -9.4298510327102941e-03 0.0000000000000000e+00  1.1302220055509817e+00 -1.7103677251602864e-03 0.0000000000000000e+00  1.1280252483842423e+00 5.9399796569395459e-03 0.0000000000000000e+00  1.1245047394698522e+00 1.3023785529769322e-02 0.0000000000000000e+00  1.1200862466472015e+00 1.9151968499039256e-02 0.0000000000000000e+00  1.1145976458212032e+00 2.4237531167835086e-02 0.0000000000000000e+00  1.1083776063348643e+00 2.8174941318303927e-02 0.0000000000000000e+00  1.1015985487490811e+00 3.0878828682519455e-02 0.0000000000000000e+00  1.0945393413786968e+00 3.2035921920815190e-02 0.0000000000000000e+00  1.0873794597993409e+00 3.1824825600525429e-02 0.0000000000000000e+00  1.0804943000345941e+00 3.0257580380852314e-02 0.0000000000000000e+00  1.0742077045360179e+00 2.7183265146333187e-02 0.0000000000000000e+00  1.0686728170268869e+00 2.29035