<?xml version="1.0"?>
<VTKFile type="UnstructuredGrid"  version="0.1"  >
<UnstructuredGrid>
<Piece  NumberOfPoints="10199" NumberOfCells="20110">
<Points>
<DataArray  type="Float64"  NumberOfComponents="3"  format="ascii">0 -5 0  8 -5 0  30 -5 0  40 -5 0  40 5 0  30 5 0  8 5 0  0 5 0  8 -2.5 0  15 -2.5 0  30 -2.5 0  30 2.5 0  15 2.5 0  8 2.5 0  10 0.5 0  10 -0.5 0  0 0 0  0.4210526315780956 -5 0  0.8421052631563433 -5 0  1.263157894734281 -5 0  1.684210526311999 -5 0  2.105263157889717 -5 0  2.526315789467435 -5 0  2.947368421045153 -5 0  3.368421052622872 -5 0  3.78947368420059 -5 0  4.210526315779479 -5 0  4.631578947359537 -5 0  5.052631578939595 -5 0  5.473684210519653 -5 0  5.89473684209971 -5 0  6.315789473679768 -5 0  6.736842105259826 -5 0  7.157894736839884 -5 0  7.578947368419942 -5 0  8.407407407405314 -5 0  8.814814814810628 -5 0  9.222222222215942 -5 0  9.629629629621256 -5 0  10.03703703702657 -5 0  10.44444444443188 -5 0  10.8518518518372 -5 0  11.25925925924251 -5 0  11.66666666664783 -5 0  12.07407407405314 -5 0  12.48148148145846 -5 0  12.88888888886377 -5 0  13.29629629626908 -5 0  13.7037037036744 -5 0  14.11111111107971 -5 0  14.51851851848502 -5 0  14.92592592589034 -5 0  15.33333333329565 -5 0  15.74074074070096 -5 0  16.14814814810754 -5 0  16.55555555551614 -5 0  16.96296296292474 -5 0  17.37037037033335 -5 0  17.77777777774195 -5 0  18.18518518515056 -5 0  18.59259259255916 -5 0  18.99999999996776 -5 0  19.40740740737636 -5 0  19.81481481478497 -5 0  20.22222222219357 -5 0  20.62962962960217 -5 0  21.03703703701077 -5 0  21.44444444441937 -5 0  21.85185185182797 -5 0  22.25925925923657 -5 0  22.66666666664518 -5 0  23.07407407405378 -5 0  23.48148148146238 -5 0  23.88888888887098 -5 0  24.29629629627958 -5 0  24.70370370368818 -5 0  25.11111111109678 -5 0  25.51851851850539 -5 0  25.92592592591399 -5 0  26.33333333332259 -5 0  26.74074074073119 -5 0  27.14814814813979 -5 0  27.55555555554839 -5 0  27.96296296295699 -5 0  28.3703703703656 -5 0  28.7777777777742 -5 0  29.1851851851828 -5 0  29.5925925925914 -5 0  30.41666666667852 -5 0  30.83333333335704 -5 0  31.25000000003556 -5 0  31.66666666671408 -5 0  32.08333333338936 -5 0  32.50000000005308 -5 0  32.9166666667168 -5 0  33.33333333338052 -5 0  33.75000000004424 -5 0  34.16666666670795 -5 0  34.58333333337167 -5 0  35.00000000003539 -5 0  35.41666666669911 -5 0  35.83333333336282 -5 0  36.25000000002654 -5 0  36.66666666669026 -5 0  37.08333333335398 -5 0  37.50000000001769 -5 0  37.91666666668141 -5 0  38.33333333334513 -5 0  38.75000000000885 -5 0  39.16666666667257 -5 0  39.58333333333628 -5 0  40 -4.583333333332821 0  40 -4.166666666665642 0  40 -3.74999999999855 0  40 -3.333333333333135 0  40 -2.916666666667806 0  40 -2.500000000002478 0  40 -2.083333333337148 0  40 -1.666666666671818 0  40 -1.250000000006488 0  40 -0.8333333333405228 0  40 -0.4166666666733416 0  40 -6.163070054299169e-12 0  40 0.4166666666610173 0  40 0.8333333333281976 0  40 1.249999999995378 0  40 1.666666666662558 0  40 2.083333333329739 0  40 2.499999999996919 0  40 2.916666666664099 0  40 3.33333333333128 0  40 3.74999999999846 0  40 4.166666666665641 0  40 4.583333333332821 0  39.58333333333628 5 0  39.16666666667256 5 0  38.75000000000885 5 0  38.33333333334513 5 0  37.91666666668141 5 0  37.50000000001769 5 0  37.08333333335398 5 0  36.66666666669025 5 0  36.25000000002654 5 0  35.83333333336282 5 0  35.41666666669911 5 0  35.00000000003539 5 0  34.58333333337167 5 0  34.16666666670795 5 0  33.75000000004424 5 0  33.33333333338052 5 0  32.9166666667168 5 0  32.50000000005308 5 0  32.08333333338936 5 0  31.66666666671408 5 0  31.25000000003556 5 0  30.83333333335704 5 0  30.41666666667852 5 0  29.59259259259259 5 0  29.18518518518519 5 0  28.77777777777778 5 0  28.37037037037037 5 0  27.96296296296296 5 0  27.55555555555556 5 0  27.14814814814815 5 0  26.74074074074074 5 0  26.33333333333333 5 0  25.92592592592593 5 0  25.51851851851852 5 0  25.11111111111111 5 0  24.7037037037037 5 0  24.2962962962963 5 0  23.88888888888889 5 0  23.48148148148148 5 0  23.07407407407408 5 0  22.66666666666667 5 0  22.25925925925926 5 0  21.85185185185185 5 0  21.44444444444445 5 0  21.03703703703704 5 0  20.62962962962963 5 0  20.22222222222222 5 0  19.81481481481482 5 0  19.40740740740741 5 0  19 5 0  18.5925925925926 5 0  18.18518518518519 5 0  17.77777777777778 5 0  17.37037037037037 5 0  16.96296296296296 5 0  16.55555555555556 5 0  16.14814814814815 5 0  15.74074074074074 5 0  15.33333333333333 5 0  14.92592592592593 5 0  14.51851851851852 5 0  14.11111111111111 5 0  13.70370370370371 5 0  13.2962962962963 5 0  12.88888888888889 5 0  12.48148148148148 5 0  12.07407407407408 5 0  11.66666666666667 5 0  11.25925925925926 5 0  10.85185185185185 5 0  10.44444444444445 5 0  10.03703703703704 5 0  9.629629629629633 5 0  9.222222222222221 5 0  8.814814814814817 5 0  8.407407407407408 5 0  7.5789473684193 5 0  7.157894736838599 5 0  6.73684210526082 5 0  6.315789473684795 5 0  5.894736842108769 5 0  5.473684210532742 5 0  5.052631578956715 5 0  4.631578947380689 5 0  4.210526315804662 5 0  3.789473684226299 5 0  3.368421052645599 5 0  2.947368421064898 5 0  2.526315789484198 5 0  2.105263157903499 5 0  1.6842105263228 5 0  1.2631578947421 5 0  0.8421052631613994 5 0  0.4210526315806993 5 0  0 4.545454545454545 0  0 4.09090909090909 0  0 3.636363636363634 0  0 3.18181818181818 0  0 2.727272727272726 0  0 2.272727272727271 0  0 1.818181818181817 0  0 1.363636363636363 0  0 0.9090909090909092 0  0 0.454545454545455 0  0 -0.4545454545450807 0  0 -0.9090909090895867 0  0 -1.363636363633713 0  0 -1.818181818177841 0  0 -2.272727272723127 0  0 -2.727272727269273 0  0 -3.181818181815419 0  0 -3.636363636361564 0  0 -4.090909090907709 0  0 -4.545454545453855 0  8 -4.499999999999999 0  8 -3.999999999999999 0  8 -3.499999999999999 0  8 -3 0  8.137254901963859 -2.5 0  8.274509803926303 -2.5 0  8.411764705886863 -2.5 0  8.549019607849138 -2.5 0  8.686274509809513 -2.5 0  8.82352941176989 -2.5 0  8.960784313730265 -2.5 0  9.098039215690642 -2.5 0  9.235294117651017 -2.5 0  9.372549019611395 -2.5 0  9.50980392157177 -2.5 0  9.647058823532147 -2.5 0  9.784313725492522 -2.5 0  9.921568627452897 -2.5 0  10.05882352941327 -2.5 0  10.19607843137365 -2.5 0  10.33333333333402 -2.5 0  10.4705882352944 -2.5 0  10.60784313725478 -2.5 0  10.74509803921515 -2.5 0  10.88235294117553 -2.5 0  11.0196078431359 -2.5 0  11.15686274509628 -2.5 0  11.29411764705665 -2.5 0  11.43137254901703 -2.5 0  11.56862745097915 -2.5 0  11.70588235294301 -2.5 0  11.84313725490686 -2.5 0  11.98039215687072 -2.5 0  12.11764705883209 -2.5 0  12.25490196079247 -2.5 0  12.39215686275285 -2.5 0  12.52941176471322 -2.5 0  12.6666666666736 -2.5 0  12.80392156863397 -2.5 0  12.94117647059435 -2.5 0  13.07843137255473 -2.5 0  13.2156862745151 -2.5 0  13.35294117647548 -2.5 0  13.49019607843586 -2.5 0  13.62745098039623 -2.5 0  13.76470588235661 -2.5 0  13.90196078431699 -2.5 0  14.03921568627736 -2.5 0  14.17647058823774 -2.5 0  14.31372549019812 -2.5 0  14.45098039215849 -2.5 0  14.58823529411887 -2.5 0  14.72549019607925 -2.5 0  14.86274509803962 -2.5 0  15.20270270270254 -2.5 0  15.40540540540509 -2.5 0  15.60810810810763 -2.5 0  15.81081081081017 -2.5 0  16.01351351351227 -2.5 0  16.21621621621265 -2.5 0  16.41891891891279 -2.5 0  16.62162162161294 -2.5 0  16.82432432431308 -2.5 0  17.02702702701322 -2.5 0  17.22972972971337 -2.5 0  17.43243243241351 -2.5 0  17.63513513511365 -2.5 0  17.83783783781379 -2.5 0  18.04054054051394 -2.5 0  18.24324324321408 -2.5 0  18.44594594591422 -2.5 0  18.64864864861436 -2.5 0  18.85135135131451 -2.5 0  19.05405405401465 -2.5 0  19.25675675671479 -2.5 0  19.45945945941494 -2.5 0  19.66216216211508 -2.5 0  19.86486486481522 -2.5 0  20.06756756751536 -2.5 0  20.27027027021551 -2.5 0  20.47297297291565 -2.5 0  20.6756756756158 -2.5 0  20.87837837831594 -2.5 0  21.08108108101608 -2.5 0  21.28378378371622 -2.5 0  21.48648648641637 -2.5 0  21.68918918911651 -2.5 0  21.89189189181666 -2.5 0  22.0945945945168 -2.5 0  22.29729729721694 -2.5 0  22.49999999991778 -2.5 0  22.70270270262203 -2.5 0  22.90540540532697 -2.5 0  23.10810810803191 -2.5 0  23.31081081073686 -2.5 0  23.5135135134418 -2.5 0  23.71621621614674 -2.5 0  23.91891891885169 -2.5 0  24.12162162155663 -2.5 0  24.32432432426158 -2.5 0  24.52702702696652 -2.5 0  24.72972972967146 -2.5 0  24.93243243237641 -2.5 0  25.13513513508135 -2.5 0  25.3378378377863 -2.5 0  25.54054054049124 -2.5 0  25.74324324319618 -2.5 0  25.94594594590112 -2.5 0  26.14864864860607 -2.5 0  26.35135135131101 -2.5 0  26.55405405401596 -2.5 0  26.7567567567209 -2.5 0  26.95945945942584 -2.5 0  27.16216216213079 -2.5 0  27.36486486483573 -2.5 0  27.56756756754068 -2.5 0  27.77027027024562 -2.5 0  27.97297297295056 -2.5 0  28.1756756756555 -2.5 0  28.37837837836045 -2.5 0  28.5810810810654 -2.5 0  28.78378378377034 -2.5 0  28.98648648647528 -2.5 0  29.18918918918023 -2.5 0  29.39189189188517 -2.5 0  29.59459459459011 -2.5 0  29.79729729729506 -2.5 0  30 -3.000000000000001 0  30 -3.500000000000001 0  30 -4.000000000000001 0  30 -4.5 0  8 4.499999999999999 0  8 3.999999999999999 0  8 3.499999999999999 0  8 3 0  8.137254901963859 2.5 0  8.274509803926303 2.5 0  8.411764705886863 2.5 0  8.549019607849138 2.5 0  8.686274509809513 2.5 0  8.82352941176989 2.5 0  8.960784313730265 2.5 0  9.098039215690642 2.5 0  9.235294117651017 2.5 0  9.372549019611395 2.5 0  9.50980392157177 2.5 0  9.647058823532147 2.5 0  9.784313725492522 2.5 0  9.921568627452897 2.5 0  10.05882352941327 2.5 0  10.19607843137365 2.5 0  10.33333333333402 2.5 0  10.4705882352944 2.5 0  10.60784313725478 2.5 0  10.74509803921515 2.5 0  10.88235294117553 2.5 0  11.0196078431359 2.5 0  11.15686274509628 2.5 0  11.29411764705665 2.5 0  11.43137254901703 2.5 0  11.56862745097915 2.5 0  11.70588235294301 2.5 0  11.84313725490686 2.5 0  11.98039215687072 2.5 0  12.11764705883209 2.5 0  12.25490196079247 2.5 0  1
[...]
<PointData  Vectors="f_17"> 
<DataArray  type="Float64"  Name="f_17"  NumberOfComponents="3" format="ascii">1.0000001309049045e+00 0.0000000000000000e+00 0.0000000000000000e+00  1.0426885261296830e+00 0.0000000000000000e+00 0.0000000000000000e+00  1.0544632626249488e+00 0.0000000000000000e+00 0.0000000000000000e+00  1.0797045824107743e+00 0.0000000000000000e+00 0.0000000000000000e+00  1.0848000899549075e+00 0.0000000000000000e+00 0.0000000000000000e+00  1.0598324775106742e+00 0.0000000000000000e+00 0.0000000000000000e+00  1.0381895890166344e+00 0.0000000000000000e+00 0.0000000000000000e+00  1.0000001309049045e+00 0.0000000000000000e+00 0.0000000000000000e+00  1.0246639641600062e+00 -5.2431512980705836e-02 0.0000000000000000e+00  1.1244446587655146e+00 -3.3241488429769150e-02 0.0000000000000000e+00  1.0581510969319434e+00 -8.5745169464723298e-02 0.0000000000000000e+00  1.0687997164313958e+00 -7.6619224321544527e-02 0.0000000000000000e+00  1.0077351010547726e+00 -6.9869501410763313e-02 0.0000000000000000e+00  1.0181224407059473e+00 4.9178857397082880e-02 0.0000000000000000e+00  0.0000000000000000e+00 0.0000000000000000e+00 0.0000000000000000e+00  0.0000000000000000e+00 0.0000000000000000e+00 0.0000000000000000e+00  1.0000001309049045e+00 0.0000000000000000e+00 0.0000000000000000e+00  9.9929261947630210e-01 0.0000000000000000e+00 0.0000000000000000e+00  9.9874698804869644e-01 0.0000000000000000e+00 0.0000000000000000e+00  1.0008318064561470e+00 0.0000000000000000e+00 0.0000000000000000e+00  1.0007018326954924e+00 0.0000000000000000e+00 0.0000000000000000e+00  1.0017648673607289e+00 0.0000000000000000e+00 0.0000000000000000e+00  1.0022022772350159e+00 0.0000000000000000e+00 0.0000000000000000e+00  1.0026437929441856e+00 0.0000000000000000e+00 0.0000000000000000e+00  1.0036200732128908e+00 0.0000000000000000e+00 0.0000000000000000e+00  1.0049835947271781e+00 0.0000000000000000e+00 0.0000000000000000e+00  1.0062255017074333e+00 0.0000000000000000e+00 0.0000000000000000e+00  1.0077867603052468e+00 0.0000000000000000e+00 0.0000000000000000e+00  1.0100764600250904e+00 0.0000000000000000e+00 0.0000000000000000e+00  1.0124549059321766e+00 0.0000000000000000e+00 0.0000000000000000e+00  1.0163870293298629e+00 0.0000000000000000e+00 0.0000000000000000e+00  1.0181071187480570e+00 0.0000000000000000e+00 0.0000000000000000e+00  1.0226502471346421e+00 0.0000000000000000e+00 0.0000000000000000e+00  1.0293848544880624e+00 0.0000000000000000e+00 0.0000000000000000e+00  1.0347880994625269e+00 0.0000000000000000e+00 0.0000000000000000e+00  1.0505641293748105e+00 0.0000000000000000e+00 0.0000000000000000e+00  1.0587424769762988e+00 0.0000000000000000e+00 0.0000000000000000e+00  1.0661356291502009e+00 0.0000000000000000e+00 0.0000000000000000e+00  1.0736612625267694e+00 0.0000000000000000e+00 0.0000000000000000e+00  1.0792648926306900e+00 0.0000000000000000e+00 0.0000000000000000e+00  1.0836314012793471e+00 0.0000000000000000e+00 0.0000000000000000e+00  1.0870335823268458e+00 0.0000000000000000e+00 0.0000000000000000e+00  1.0874240228794483e+00 0.0000000000000000e+00 0.0000000000000000e+00  1.0867346195368683e+00 0.0000000000000000e+00 0.0000000000000000e+00  1.0846211597419981e+00 0.0000000000000000e+00 0.0000000000000000e+00  1.0822899603359024e+00 0.0000000000000000e+00 0.0000000000000000e+00  1.0790121062283113e+00 0.0000000000000000e+00 0.0000000000000000e+00  1.0773334926332994e+00 0.0000000000000000e+00 0.0000000000000000e+00  1.0763165129857619e+00 0.0000000000000000e+00 0.0000000000000000e+00  1.0757833422853560e+00 0.0000000000000000e+00 0.0000000000000000e+00  1.0758630428702813e+00 0.0000000000000000e+00 0.0000000000000000e+00  1.0754192398265641e+00 0.0000000000000000e+00 0.0000000000000000e+00  1.0739376691641782e+00 0.0000000000000000e+00 0.0000000000000000e+00  1.0705365413709320e+00 0.0000000000000000e+00 0.0000000000000000e+00  1.0651573669125547e+00 0.0000000000000000e+00 0.0000000000000000e+00  1.0595213606245510e+00 0.0000000000000000e+00 0.0000000000000000e+00  1.0536736231984345e+00 0.0000000000000000e+00 0.0000000000000000e+00  1.0468516072100016e+00 0.0000000000000000e+00 0.0000000000000000e+00  1.0422131081777899e+00 0.0000000000000000e+00 0.0000000000000000e+00  1.0394068599621318e+00 0.0000000000000000e+00 0.0000000000000000e+00  1.0390441632455221e+00 0.0000000000000000e+00 0.0000000000000000e+00  1.0416180093832741e+00 0.0000000000000000e+00 0.0000000000000000e+00  1.0458003459622685e+00 0.0000000000000000e+00 0.0000000000000000e+00  1.0510966728970530e+00 0.0000000000000000e+00 0.0000000000000000e+00  1.0568224641572235e+00 0.0000000000000000e+00 0.0000000000000000e+00  1.0604213760180239e+00 0.0000000000000000e+00 0.0000000000000000e+00  1.0618534462107867e+00 0.0000000000000000e+00 0.0000000000000000e+00  1.0622489935084405e+00 0.0000000000000000e+00 0.0000000000000000e+00  1.0593695806718271e+00 0.0000000000000000e+00 0.0000000000000000e+00  1.0548179381129870e+00 0.0000000000000000e+00 0.0000000000000000e+00  1.0507339441755985e+00 0.0000000000000000e+00 0.0000000000000000e+00  1.0464441164802045e+00 0.0000000000000000e+00 0.0000000000000000e+00  1.0435006971790173e+00 0.0000000000000000e+00 0.0000000000000000e+00  1.0441661190265932e+00 0.0000000000000000e+00 0.0000000000000000e+00  1.0459549267334420e+00 0.0000000000000000e+00 0.0000000000000000e+00  1.0494348508033096e+00 0.0000000000000000e+00 0.0000000000000000e+00  1.0547384540235791e+00 0.0000000000000000e+00 0.0000000000000000e+00  1.0592822402678312e+00 0.0000000000000000e+00 0.0000000000000000e+00  1.0627019240825890e+00 0.0000000000000000e+00 0.0000000000000000e+00  1.0649337060614570e+00 0.0000000000000000e+00 0.0000000000000000e+00  1.0641023124666753e+00 0.0000000000000000e+00 0.0000000000000000e+00  1.0609987960084906e+00 0.0000000000000000e+00 0.0000000000000000e+00  1.0590943327241975e+00 0.0000000000000000e+00 0.0000000000000000e+00  1.0549654684115035e+00 0.0000000000000000e+00 0.0000000000000000e+00  1.0498457466723798e+00 0.0000000000000000e+00 0.0000000000000000e+00  1.0474320983322589e+00 0.0000000000000000e+00 0.0000000000000000e+00  1.0484996991763949e+00 0.0000000000000000e+00 0.0000000000000000e+00  1.0506144866156513e+00 0.0000000000000000e+00 0.0000000000000000e+00  1.0587673306129268e+00 0.0000000000000000e+00 0.0000000000000000e+00  1.0618667331422513e+00 0.0000000000000000e+00 0.0000000000000000e+00  1.0637359451479214e+00 0.0000000000000000e+00 0.0000000000000000e+00  1.0647686300952739e+00 0.0000000000000000e+00 0.0000000000000000e+00  1.0636508271573988e+00 0.0000000000000000e+00 0.0000000000000000e+00  1.0606945445048732e+00 0.0000000000000000e+00 0.0000000000000000e+00  1.0568267403567000e+00 0.0000000000000000e+00 0.0000000000000000e+00  1.0536863352185093e+00 0.0000000000000000e+00 0.0000000000000000e+00  1.0516424573506411e+00 0.0000000000000000e+00 0.0000000000000000e+00  1.0510773280390029e+00 0.0000000000000000e+00 0.0000000000000000e+00  1.0529639358787102e+00 0.0000000000000000e+00 0.0000000000000000e+00  1.0564430080961935e+00 0.0000000000000000e+00 0.0000000000000000e+00  1.0604851026286490e+00 0.0000000000000000e+00 0.0000000000000000e+00  1.0650518762098748e+00 0.0000000000000000e+00 0.0000000000000000e+00  1.0685625102870213e+00 0.0000000000000000e+00 0.0000000000000000e+00  1.0710891441430079e+00 0.0000000000000000e+00 0.0000000000000000e+00  1.0708961370991059e+00 0.0000000000000000e+00 0.0000000000000000e+00  1.0699219728059741e+00 0.0000000000000000e+00 0.0000000000000000e+00  1.0679740563544555e+00 0.0000000000000000e+00 0.0000000000000000e+00  1.0669761393598067e+00 0.0000000000000000e+00 0.0000000000000000e+00  1.0665819378362120e+00 0.0000000000000000e+00 0.0000000000000000e+00  1.0689595930217866e+00 0.0000000000000000e+00 0.0000000000000000e+00  1.0728325980662783e+00 0.0000000000000000e+00 0.0000000000000000e+00  1.0795925182412669e+00 -7.7065021716466479e-03 0.0000000000000000e+00  1.0781625759642277e+00 -1.6688681475450790e-02 0.0000000000000000e+00  1.0746964957422378e+00 -2.8109856196905710e-02 0.0000000000000000e+00  1.0655238214220628e+00 -4.3291330724875544e-02 0.0000000000000000e+00  1.0506636132356806e+00 -6.6587343859635745e-02 0.0000000000000000e+00  1.0291883621068236e+00 -9.9938747352730603e-02 0.0000000000000000e+00  9.9876627836943321e-01 -1.5240336069896787e-01 0.0000000000000000e+00  9.4831778411948431e-01 -2.0437595228256314e-01 0.0000000000000000e+00  8.7436240980312363e-01 -2.4513346175922607e-01 0.0000000000000000e+00  7.9727664237756535e-01 -2.6730085730139952e-01 0.0000000000000000e+00  7.4454738722984026e-01 -2.7373863692094508e-01 0.0000000000000000e+00  7.3585574543296439e-01 -2.7242636907788376e-01 0.0000000000000000e+00  7.7695410016438970e-01 -2.6809464636619212e-01 0.0000000000000000e+00  8.6532299382023270e-01 -2.5366977333228163e-01 0.0000000000000000e+00  9.7555887143477216e-01 -2.2057566156689776e-01 0.0000000000000000e+00  1.0696958953687143e+00 -1.6601240889134775e-01 0.0000000000000000e+00  1.1194642824133503e+00 -1.1219664837230293e-01 0.0000000000000000e+00  1.1307006623044775e+00 -6.4414848579300063e-02 0.0000000000000000e+00  1.1187514466680855e+00 -3.5291890727501440e-02 0.0000000000000000e+00  1.1042280054130749e+00 -1.6747725656043426e-02 0.0000000000000000e+00  1.0943385146898483e+00 -7.4746808269966127e-03 0.0000000000000000e+00  1.0895311885960990e+00 -3.1458861773936884e-03 0.0000000000000000e+00  1.0862874597148429e+00 -1.1848608813465123e-03 0.0000000000000000e+00  1.0848826591820977e+00 0.0000000000000000e+00 0.0000000000000000e+00  1.0833764381808793e+00 0.0000000000000000e+00 0.0000000000000000e+00  1.0799034074247613e+00 0.0000000000000000e+00 0.0000000000000000e+00  1.0751217071831847e+00 0.0000000000000000e+00 0.0000000000000000e+00  1.0689302929255640e+00 0.0000000000000000e+00 0.0000000000000000e+00  1.0635588781279797e+00 0.0000000000000000e+00 0.0000000000000000e+00  1.0595432309909882e+00 0.0000000000000000e+00 0.0000000000000000e+00  1.0576832657228608e+00 0.0000000000000000e+00 0.0000000000000000e+00  1.0573357646064503e+00 0.0000000000000000e+00 0.0000000000000000e+00  1.0591238379075341e+00 0.0000000000000000e+00 0.0000000000000000e+00  1.0619493286901085e+00 0.0000000000000000e+00 0.0000000000000000e+00  1.0647806329684038e+00 0.0000000000000000e+00 0.0000000000000000e+00  1.0668540591785225e+00 0.0000000000000000e+00 0.0000000000000000e+00  1.0680824121311057e+00 0.0000000000000000e+00 0.0000000000000000e+00  1.0666046959961788e+00 0.0000000000000000e+00 0.0000000000000000e+00  1.0644535014698073e+00 0.0000000000000000e+00 0.0000000000000000e+00  1.0598166122235688e+00 0.0000000000000000e+00 0.0000000000000000e+00  1.0554967759202243e+00 0.0000000000000000e+00 0.0000000000000000e+00  1.0517900063177654e+00 0.0000000000000000e+00 0.0000000000000000e+00  1.0501907689200125e+00 0.0000000000000000e+00 0.0000000000000000e+00  1.0503501102620096e+00 0.0000000000000000e+00 0.0000000000000000e+00  1.0521695877370165e+00 0.0000000000000000e+00 0.0000000000000000e+00  1.0558246705722976e+00 0.0000000000000000e+00 0.0000000000000000e+00  1.0623995574103757e+00 0.0000000000000000e+00 0.0000000000000000e+00  1.0643384262159248e+00 0.0000000000000000e+00 0.0000000000000000e+00  1.0632218210110818e+00 0.0000000000000000e+00 0.0000000000000000e+00  1.0616392207672622e+00 0.0000000000000000e+00 0.0000000000000000e+00  1.0593635736752667e+00 0.0000000000000000e+00 0.0000000000000000e+00  1.0552995211120151e+00 0.0000000000000000e+00 0.0000000000000000e+00  1.0495879672591766e+00 0.0000000000000000e+00 0.0000000000000000e+00  1.0474367524580463e+00 0.0000000000000000e+00 0.0000000000000000e+00  1.0469693771138870e+00 0.0000000000000000e+00 0.0000000000000000e+00  1.0476640739398424e+00 0.0000000000000000e+00 0.0000000000000000e+00  1.0507287525043469e+00 0.0000000000000000e+00 0.0000000000000000e+00  1.0548955808609546e+00 0.0000000000000000e+00 0.0000000000000000e+00  1.0584720847639406e+00 0.0000000000000000e+00 0.0000000000000000e+00  1.0618441530871470e+00 0.0000000000000000e+00 0.0000000000000000e+00  1.0631888674258734e+00 0.0000000000000000e+00 0.0000000000000000e+00  1.0614080372636221e+00 0.0000000000000000e+00 0.0000000000000000e+00  1.0585780991355378e+00 0.0000000000000000e+00 0.0000000000000000e+00  1.0540615042344161e+00 0.0000000000000000e+00 0.0000000000000000e+00  1.0479986306014637e+00 0.0000000000000000e+00 0.0000000000000000e+00  1.0435359540869602e+00 0.0000000000000000e+00 0.0000000000000000e+00  1.0404365962026765e+00 0.0000000000000000e+00 0.0000000000000000e+00  1.0384522980595159e+00 0.0000000000000000e+00 0.0000000000000000e+00  1.0404240442471417e+00 0.0000000000000000e+00 0.0000000000000000e+00  1.0443615028835742e+00 0.0000000000000000e+00 0.0000000000000000e+00  1.0490040817290167e+00 0.0000000000000000e+00 0.0000000000000000e+00  1.0544378159559415e+00 0.0000000000000000e+00 0.0000000000000000e+00  1.0593173409805430e+00 0.0000000000000000e+00 0.0000000000000000e+00  1.0621678397945633e+00 0.0000000000000000e+00 0.0000000000000000e+00  1.0632883319145969e+00 0.0000000000000000e+00 0.0000000000000000e+00  1.0621451985558907e+00 0.0000000000000000e+00 0.0000000000000000e+00  1.0590693614855839e+00 0.0000000000000000e+00 0.0000000000000000e+00  1.0559174886234803e+00 0.0000000000000000e+00 0.0000000000000000e+00  1.0519898846081632e+00 0.0000000000000000e+00 0.0000000000000000e+00  1.0497755633234012e+00 0.0000000000000000e+00 0.0000000000000000e+00  1.0504607259579031e+00 0.0000000000000000e+00 0.0000000000000000e+00  1.0533906799423993e+00 0.0000000000000000e+00 0.0000000000000000e+00  1.0580147768171027e+00 0.0000000000000000e+00 0.0000000000000000e+00  1.0639907196471896e+00 0.0000000000000000e+00 0.0000000000000000e+00  1.0712863821371463e+00 0.0000000000000000e+00 0.0000000000000000e+00  1.0794943806165396e+00 0.0000000000000000e+00 0.0000000000000000e+00  1.0863314029749254e+00 0.0000000000000000e+00 0.0000000000000000e+00  1.0915963736999021e+00 0.0000000000000000e+00 0.0000000000000000e+00  1.0965744905836818e+00 0.0000000000000000e+00 0.0000000000000000e+00  1.0978614900702794e+00 0.0000000000000000e+00 0.0000000000000000e+00  1.0980226821588086e+00 0.0000000000000000e+00 0.0000000000000000e+00  1.0958303766089086e+00 0.0000000000000000e+00 0.0000000000000000e+00  1.0912721195468371e+00 0.0000000000000000e+00 0.0000000000000000e+00  1.0853303209166114e+00 0.0000000000000000e+00 0.0000000000000000e+00  1.0785106976836130e+00 0.0000000000000000e+00 0.0000000000000000e+00  1.0709206362894634e+00 0.0000000000000000e+00 0.0000000000000000e+00  1.0621538804690271e+00 0.0000000000000000e+00 0.0000000000000000e+00  1.0543140394315313e+00 0.0000000000000000e+00 0.0000000000000000e+00  1.0460098553734432e+00 0.0000000000000000e+00 0.0000000000000000e+00  1.0307080605910903e+00 0.0000000000000000e+00 0.0000000000000000e+00  1.0242495300332799e+00 0.0000000000000000e+00 0.0000000000000000e+00  1.0191647509322548e+00 0.0000000000000000e+00 0.0000000000000000e+00  1.0146177548063575e+00 0.0000000000000000e+00 0.0000000000000000e+00  1.0109136125442797e+00 0.0000000000000000e+00 0.0000000000000000e+00  1.0080108703486894e+00 0.0000000000000000e+00 0.0000000000000000e+00  1.0058468443931676e+00 0.0000000000000000e+00 0.0000000000000000e+00  1.0037691437270646e+00 0.0000000000000000e+00 0.0000000000000000e+00  1.0024150954160189e+00 0.0000000000000000e+00 0.0000000000000000e+00  1.0015490432368177e+00 0.0000000000000000e+00 0.0000000000000000e+00  1.0005605815658900e+00 0.0000000000000000e+00 0.0000000000000000e+00  1.0006048700761683e+00 0.0000000000000000e+00 0.0000000000000000e+00  9.9975443717726686e-01 0.0000000000000000e+00 0.0000000000000000e+00  9.9991287298310849e-01 0.0000000000000000e+00 0.0000000000000000e+00  9.9964756445793379e-01 0.0000000000000000e+00 0.0000000000000000e+00  1.0004296011455562e+00 0.0000000000000000e+00 0.0000000000000000e+00  1.0002333939953263e+00 0.0000000000000000e+00 0.0000000000000000e+00  9.9979662882035503e-01 0.0000000000000000e+00 0.0000000000000000e+00  1.0000001309049045e+00 0.0000000000000000e+00 0.0000000000000000e+00  1.0000001309049045e+00 0.0000000000000000e+00 0.0000000000000000e+00  1.0000001309049045e+00 0.0000000000000000e+00 0.0000000000000000e+00  1.0000001309049045e+00 0.0000000000000000e+00 0.0000000000000000e+00  1.0000001309049045e+00 0.0000000000000000e+00 0.0000000000000000e+00  1.0000001309049045e+00 0.0000000000000000e+00 0.0000000000000000e+00  1.0000001309049045e+00 0.0000000000000000e+00 0.0000000000000000e+00  1.0000001309049045e+00 0.0000000000000000e+00 0.0000000000000000e+00  1.0000001309049045e+00 0.0000000000000000e+00 0.0000000000000000e+00  1.0000001309049045e+00 0.0000000000000000e+00 0.0000000000000000e+00  1.0000001309049045e+00 0.0000000000000000e+00 0.0000000000000000e+00  1.0000001309049045e+00 0.0000000000000000e+00 0.0000000000000000e+00  1.0000001309049045e+00 0.0000000000000000e+00 0.0000000000000000e+00  1.0000001309049045e+00 0.0000000000000000e+00 0.0000000000000000e+00  1.0000001309049045e+00 0.0000000000000000e+00 0.0000000000000000e+00  1.0000001309049045e+00 0.0000000000000000e+00 0.0000000000000000e+00  1.0000001309049045e+00 0.0000000000000000e+00 0.0000000000000000e+00  1.0000001309049045e+00 0.0000000000000000e+00 0.0000000000000000e+00  1.0000001309049045e+00 0.0000000000000000e+00 0.0000000000000000e+00  1.0000001309049045e+00 0.0000000000000000e+00 0.0000000000000000e+00  1.0421799063937400e+00 -9.2982858120076346e-03 0.0000000000000000e+00  1.0394861425987403e+00 -1.8857948299237079e-02 0.0000000000000000e+00  1.0377255791139175e+00 -2.9378876176228801e-02 0.0000000000000000e+00  1.0326058080034275e+00 -4.0603852410884753e-02 0.0000000000000000e+00  1.0276015524748894e+00 -5.6028495456414730e-02 0.0000000000000000e+00  1.0323185952996141e+00 -5.9223852892888201e-02 0.0000000000000000e+00  1.0366444680159859e+00 -6.2440222430714780e-02 0.0000000000000000e+00  1.0420066269282726e+00 -6.5285427179871444e-02 0.0000000000000000e+00  1.0476279652632374e+00 -6.7908979081546791e-02 0.0000000000000000e+00  1.0538739689482965e+00 -7.0031528422318273e-02 0.0000000000000000e+00  1.0606826321897160e+00 -7.1707779309398922e-02 0.0000000000000000e+00  1.0679086828189244e+00 -7.2620479478797864e-02 0.0000000000000000e+00  1.0756083940485015e+00 -7.2874967743074642e-02 0.0000000000000000e+00  1.0833686395514923e+00 -7.2124249139317892e-02 0.0000000000000000e+00  1.0913814859203252e+00 -7.0603970032222810e-02 0.0000000000000000e+00  1.0993258781961106e+00 -6.8187630051024933e-02 0.0000000000000000e+00  1.1072326592303792e+00 -6.4564348675959796e-02 0.0000000000000000e+00  1.1146045937357345e+00 -5.9870930269573998e-02 0.0000000000000000e+00  1.1214910177817217e+00 -5.4357509502063181e-02 0.0000000000000000e+00  1.1277127369990505e+00 -4.7922849721545806e-02 0.0000000000000000e+00  1.1329956324726156e+00 -4.0627855468196063e-02 0.0000000000000000e+00  1.1373201493220773e+00 -3.2672222849167980e-02 0.0000000000000000e+00  1.1405231984248458e+00 -2.4227531274660041e-02 0.0000000000000000e+00  1.1425690059921327e+00 -1.5209446510288637e-02 0.0000000000000000e+00  1.1433689635011013e+00 -6.2390523338147928e-03 0.0000000000000000e+00  1.1428988562509665e+00 2.9837759941589359e-03 0.0000000000000000e+00  1.1409535033764460e+00 1.2118088844706375e-02 0.0000000000000000e+00  1.1378959887993334e+00 2.0780954178667904e-02 0.0000000000000000e+00  1.1334068638316703e+00 2.8835777660369575e-02 0.0000000000000000e+00  1.1277714961665279e+00 3.6157176744085022e-02 0.0000000000000000e+00  1.1210152559222184e+00 4.2542656373047098e-02 0.0000000000000000e+00  1.1132977582850687e+00 4.7632281096789901e-02 0.0000000000000000e+00  1.1048115535540803e+00 5.1518484044644590e-02 0.0000000000000000e+00  1.0957507233380597e+00 5.4057763382760644e-02 0.0000000000000000e+00  1.0864561432642426e+00 5.4958193014667193e-02 0.0000000000000000e+00  1.0770724552304245e+00 5.4322