<?xml version="1.0"?>
<VTKFile type="UnstructuredGrid"  version="0.1"  >
<UnstructuredGrid>
<Piece  NumberOfPoints="10199" NumberOfCells="20110">
<Points>
<DataArray  type="Float64"  NumberOfComponents="3"  format="ascii">0 -5 0  8 -5 0  30 -5 0  40 -5 0  40 5 0  30 5 0  8 5 0  0 5 0  8 -2.5 0  15 -2.5 0  30 -2.5 0  30 2.5 0  15 2.5 0  8 2.5 0  10 0.5 0  10 -0.5 0  0 0 0  0.4210526315780956 -5 0  0.8421052631563433 -5 0  1.263157894734281 -5 0  1.684210526311999 -5 0  2.105263157889717 -5 0  2.526315789467435 -5 0  2.947368421045153 -5 0  3.368421052622872 -5 0  3.78947368420059 -5 0  4.210526315779479 -5 0  4.631578947359537 -5 0  5.052631578939595 -5 0  5.473684210519653 -5 0  5.89473684209971 -5 0  6.315789473679768 -5 0  6.736842105259826 -5 0  7.157894736839884 -5 0  7.578947368419942 -5 0  8.407407407405314 -5 0  8.814814814810628 -5 0  9.222222222215942 -5 0  9.629629629621256 -5 0  10.03703703702657 -5 0  10.44444444443188 -5 0  10.8518518518372 -5 0  11.25925925924251 -5 0  11.66666666664783 -5 0  12.07407407405314 -5 0  12.48148148145846 -5 0  12.88888888886377 -5 0  13.29629629626908 -5 0  13.7037037036744 -5 0  14.11111111107971 -5 0  14.51851851848502 -5 0  14.92592592589034 -5 0  15.33333333329565 -5 0  15.74074074070096 -5 0  16.14814814810754 -5 0  16.55555555551614 -5 0  16.96296296292474 -5 0  17.37037037033335 -5 0  17.77777777774195 -5 0  18.18518518515056 -5 0  18.59259259255916 -5 0  18.99999999996776 -5 0  19.40740740737636 -5 0  19.81481481478497 -5 0  20.22222222219357 -5 0  20.62962962960217 -5 0  21.03703703701077 -5 0  21.44444444441937 -5 0  21.85185185182797 -5 0  22.25925925923657 -5 0  22.66666666664518 -5 0  23.07407407405378 -5 0  23.48148148146238 -5 0  23.88888888887098 -5 0  24.29629629627958 -5 0  24.70370370368818 -5 0  25.11111111109678 -5 0  25.51851851850539 -5 0  25.92592592591399 -5 0  26.33333333332259 -5 0  26.74074074073119 -5 0  27.14814814813979 -5 0  27.55555555554839 -5 0  27.96296296295699 -5 0  28.3703703703656 -5 0  28.7777777777742 -5 0  29.1851851851828 -5 0  29.5925925925914 -5 0  30.41666666667852 -5 0  30.83333333335704 -5 0  31.25000000003556 -5 0  31.66666666671408 -5 0  32.08333333338936 -5 0  32.50000000005308 -5 0  32.9166666667168 -5 0  33.33333333338052 -5 0  33.75000000004424 -5 0  34.16666666670795 -5 0  34.58333333337167 -5 0  35.00000000003539 -5 0  35.41666666669911 -5 0  35.83333333336282 -5 0  36.25000000002654 -5 0  36.66666666669026 -5 0  37.08333333335398 -5 0  37.50000000001769 -5 0  37.91666666668141 -5 0  38.33333333334513 -5 0  38.75000000000885 -5 0  39.16666666667257 -5 0  39.58333333333628 -5 0  40 -4.583333333332821 0  40 -4.166666666665642 0  40 -3.74999999999855 0  40 -3.333333333333135 0  40 -2.916666666667806 0  40 -2.500000000002478 0  40 -2.083333333337148 0  40 -1.666666666671818 0  40 -1.250000000006488 0  40 -0.8333333333405228 0  40 -0.4166666666733416 0  40 -6.163070054299169e-12 0  40 0.4166666666610173 0  40 0.8333333333281976 0  40 1.249999999995378 0  40 1.666666666662558 0  40 2.083333333329739 0  40 2.499999999996919 0  40 2.916666666664099 0  40 3.33333333333128 0  40 3.74999999999846 0  40 4.166666666665641 0  40 4.583333333332821 0  39.58333333333628 5 0  39.16666666667256 5 0  38.75000000000885 5 0  38.33333333334513 5 0  37.91666666668141 5 0  37.50000000001769 5 0  37.08333333335398 5 0  36.66666666669025 5 0  36.25000000002654 5 0  35.83333333336282 5 0  35.41666666669911 5 0  35.00000000003539 5 0  34.58333333337167 5 0  34.16666666670795 5 0  33.75000000004424 5 0  33.33333333338052 5 0  32.9166666667168 5 0  32.50000000005308 5 0  32.08333333338936 5 0  31.66666666671408 5 0  31.25000000003556 5 0  30.83333333335704 5 0  30.41666666667852 5 0  29.59259259259259 5 0  29.18518518518519 5 0  28.77777777777778 5 0  28.37037037037037 5 0  27.96296296296296 5 0  27.55555555555556 5 0  27.14814814814815 5 0  26.74074074074074 5 0  26.33333333333333 5 0  25.92592592592593 5 0  25.51851851851852 5 0  25.11111111111111 5 0  24.7037037037037 5 0  24.2962962962963 5 0  23.88888888888889 5 0  23.48148148148148 5 0  23.07407407407408 5 0  22.66666666666667 5 0  22.25925925925926 5 0  21.85185185185185 5 0  21.44444444444445 5 0  21.03703703703704 5 0  20.62962962962963 5 0  20.22222222222222 5 0  19.81481481481482 5 0  19.40740740740741 5 0  19 5 0  18.5925925925926 5 0  18.18518518518519 5 0  17.77777777777778 5 0  17.37037037037037 5 0  16.96296296296296 5 0  16.55555555555556 5 0  16.14814814814815 5 0  15.74074074074074 5 0  15.33333333333333 5 0  14.92592592592593 5 0  14.51851851851852 5 0  14.11111111111111 5 0  13.70370370370371 5 0  13.2962962962963 5 0  12.88888888888889 5 0  12.48148148148148 5 0  12.07407407407408 5 0  11.66666666666667 5 0  11.25925925925926 5 0  10.85185185185185 5 0  10.44444444444445 5 0  10.03703703703704 5 0  9.629629629629633 5 0  9.222222222222221 5 0  8.814814814814817 5 0  8.407407407407408 5 0  7.5789473684193 5 0  7.157894736838599 5 0  6.73684210526082 5 0  6.315789473684795 5 0  5.894736842108769 5 0  5.473684210532742 5 0  5.052631578956715 5 0  4.631578947380689 5 0  4.210526315804662 5 0  3.789473684226299 5 0  3.368421052645599 5 0  2.947368421064898 5 0  2.526315789484198 5 0  2.105263157903499 5 0  1.6842105263228 5 0  1.2631578947421 5 0  0.8421052631613994 5 0  0.4210526315806993 5 0  0 4.545454545454545 0  0 4.09090909090909 0  0 3.636363636363634 0  0 3.18181818181818 0  0 2.727272727272726 0  0 2.272727272727271 0  0 1.818181818181817 0  0 1.363636363636363 0  0 0.9090909090909092 0  0 0.454545454545455 0  0 -0.4545454545450807 0  0 -0.9090909090895867 0  0 -1.363636363633713 0  0 -1.818181818177841 0  0 -2.272727272723127 0  0 -2.727272727269273 0  0 -3.181818181815419 0  0 -3.636363636361564 0  0 -4.090909090907709 0  0 -4.545454545453855 0  8 -4.499999999999999 0  8 -3.999999999999999 0  8 -3.499999999999999 0  8 -3 0  8.137254901963859 -2.5 0  8.274509803926303 -2.5 0  8.411764705886863 -2.5 0  8.549019607849138 -2.5 0  8.686274509809513 -2.5 0  8.82352941176989 -2.5 0  8.960784313730265 -2.5 0  9.098039215690642 -2.5 0  9.235294117651017 -2.5 0  9.372549019611395 -2.5 0  9.50980392157177 -2.5 0  9.647058823532147 -2.5 0  9.784313725492522 -2.5 0  9.921568627452897 -2.5 0  10.05882352941327 -2.5 0  10.19607843137365 -2.5 0  10.33333333333402 -2.5 0  10.4705882352944 -2.5 0  10.60784313725478 -2.5 0  10.74509803921515 -2.5 0  10.88235294117553 -2.5 0  11.0196078431359 -2.5 0  11.15686274509628 -2.5 0  11.29411764705665 -2.5 0  11.43137254901703 -2.5 0  11.56862745097915 -2.5 0  11.70588235294301 -2.5 0  11.84313725490686 -2.5 0  11.98039215687072 -2.5 0  12.11764705883209 -2.5 0  12.25490196079247 -2.5 0  12.39215686275285 -2.5 0  12.52941176471322 -2.5 0  12.6666666666736 -2.5 0  12.80392156863397 -2.5 0  12.94117647059435 -2.5 0  13.07843137255473 -2.5 0  13.2156862745151 -2.5 0  13.35294117647548 -2.5 0  13.49019607843586 -2.5 0  13.62745098039623 -2.5 0  13.76470588235661 -2.5 0  13.90196078431699 -2.5 0  14.03921568627736 -2.5 0  14.17647058823774 -2.5 0  14.31372549019812 -2.5 0  14.45098039215849 -2.5 0  14.58823529411887 -2.5 0  14.72549019607925 -2.5 0  14.86274509803962 -2.5 0  15.20270270270254 -2.5 0  15.40540540540509 -2.5 0  15.60810810810763 -2.5 0  15.81081081081017 -2.5 0  16.01351351351227 -2.5 0  16.21621621621265 -2.5 0  16.41891891891279 -2.5 0  16.62162162161294 -2.5 0  16.82432432431308 -2.5 0  17.02702702701322 -2.5 0  17.22972972971337 -2.5 0  17.43243243241351 -2.5 0  17.63513513511365 -2.5 0  17.83783783781379 -2.5 0  18.04054054051394 -2.5 0  18.24324324321408 -2.5 0  18.44594594591422 -2.5 0  18.64864864861436 -2.5 0  18.85135135131451 -2.5 0  19.05405405401465 -2.5 0  19.25675675671479 -2.5 0  19.45945945941494 -2.5 0  19.66216216211508 -2.5 0  19.86486486481522 -2.5 0  20.06756756751536 -2.5 0  20.27027027021551 -2.5 0  20.47297297291565 -2.5 0  20.6756756756158 -2.5 0  20.87837837831594 -2.5 0  21.08108108101608 -2.5 0  21.28378378371622 -2.5 0  21.48648648641637 -2.5 0  21.68918918911651 -2.5 0  21.89189189181666 -2.5 0  22.0945945945168 -2.5 0  22.29729729721694 -2.5 0  22.49999999991778 -2.5 0  22.70270270262203 -2.5 0  22.90540540532697 -2.5 0  23.10810810803191 -2.5 0  23.31081081073686 -2.5 0  23.5135135134418 -2.5 0  23.71621621614674 -2.5 0  23.91891891885169 -2.5 0  24.12162162155663 -2.5 0  24.32432432426158 -2.5 0  24.52702702696652 -2.5 0  24.72972972967146 -2.5 0  24.93243243237641 -2.5 0  25.13513513508135 -2.5 0  25.3378378377863 -2.5 0  25.54054054049124 -2.5 0  25.74324324319618 -2.5 0  25.94594594590112 -2.5 0  26.14864864860607 -2.5 0  26.35135135131101 -2.5 0  26.55405405401596 -2.5 0  26.7567567567209 -2.5 0  26.95945945942584 -2.5 0  27.16216216213079 -2.5 0  27.36486486483573 -2.5 0  27.56756756754068 -2.5 0  27.77027027024562 -2.5 0  27.97297297295056 -2.5 0  28.1756756756555 -2.5 0  28.37837837836045 -2.5 0  28.5810810810654 -2.5 0  28.78378378377034 -2.5 0  28.98648648647528 -2.5 0  29.18918918918023 -2.5 0  29.39189189188517 -2.5 0  29.59459459459011 -2.5 0  29.79729729729506 -2.5 0  30 -3.000000000000001 0  30 -3.500000000000001 0  30 -4.000000000000001 0  30 -4.5 0  8 4.499999999999999 0  8 3.999999999999999 0  8 3.499999999999999 0  8 3 0  8.137254901963859 2.5 0  8.274509803926303 2.5 0  8.411764705886863 2.5 0  8.549019607849138 2.5 0  8.686274509809513 2.5 0  8.82352941176989 2.5 0  8.960784313730265 2.5 0  9.098039215690642 2.5 0  9.235294117651017 2.5 0  9.372549019611395 2.5 0  9.50980392157177 2.5 0  9.647058823532147 2.5 0  9.784313725492522 2.5 0  9.921568627452897 2.5 0  10.05882352941327 2.5 0  10.19607843137365 2.5 0  10.33333333333402 2.5 0  10.4705882352944 2.5 0  10.60784313725478 2.5 0  10.74509803921515 2.5 0  10.88235294117553 2.5 0  11.0196078431359 2.5 0  11.15686274509628 2.5 0  11.29411764705665 2.5 0  11.43137254901703 2.5 0  11.56862745097915 2.5 0  11.70588235294301 2.5 0  11.84313725490686 2.5 0  11.98039215687072 2.5 0  12.11764705883209 2.5 0  12.25490196079247 2.5 0  1
[...]
<PointData  Vectors="f_17"> 
<DataArray  type="Float64"  Name="f_17"  NumberOfComponents="3" format="ascii">1.0000001298967141e+00 0.0000000000000000e+00 0.0000000000000000e+00  1.0415914379630493e+00 0.0000000000000000e+00 0.0000000000000000e+00  1.0497168940566892e+00 0.0000000000000000e+00 0.0000000000000000e+00  1.0729171780099638e+00 0.0000000000000000e+00 0.0000000000000000e+00  1.0928667264705394e+00 0.0000000000000000e+00 0.0000000000000000e+00  1.0648384885113706e+00 0.0000000000000000e+00 0.0000000000000000e+00  1.0392639681862210e+00 0.0000000000000000e+00 0.0000000000000000e+00  1.0000001298967141e+00 0.0000000000000000e+00 0.0000000000000000e+00  1.0209633963731999e+00 -5.2203337655327565e-02 0.0000000000000000e+00  1.0412069154746313e+00 -5.8988741083945660e-02 0.0000000000000000e+00  9.9153810541477450e-01 -2.5182405418849495e-02 0.0000000000000000e+00  1.1371974907961160e+00 -3.1977968235027444e-02 0.0000000000000000e+00  1.0647913981837991e+00 -9.1184237988312350e-02 0.0000000000000000e+00  1.0218372016216388e+00 4.9387938620742401e-02 0.0000000000000000e+00  0.0000000000000000e+00 0.0000000000000000e+00 0.0000000000000000e+00  0.0000000000000000e+00 0.0000000000000000e+00 0.0000000000000000e+00  1.0000001298967141e+00 0.0000000000000000e+00 0.0000000000000000e+00  9.9927474806095917e-01 0.0000000000000000e+00 0.0000000000000000e+00  9.9866243470971849e-01 0.0000000000000000e+00 0.0000000000000000e+00  1.0006803627915624e+00 0.0000000000000000e+00 0.0000000000000000e+00  1.0004263914003835e+00 0.0000000000000000e+00 0.0000000000000000e+00  1.0013482010471693e+00 0.0000000000000000e+00 0.0000000000000000e+00  1.0016286879256333e+00 0.0000000000000000e+00 0.0000000000000000e+00  1.0019287661952541e+00 0.0000000000000000e+00 0.0000000000000000e+00  1.0027941330366208e+00 0.0000000000000000e+00 0.0000000000000000e+00  1.0040532781307974e+00 0.0000000000000000e+00 0.0000000000000000e+00  1.0052413204116182e+00 0.0000000000000000e+00 0.0000000000000000e+00  1.0067377537391964e+00 0.0000000000000000e+00 0.0000000000000000e+00  1.0090079944580532e+00 0.0000000000000000e+00 0.0000000000000000e+00  1.0113447602160353e+00 0.0000000000000000e+00 0.0000000000000000e+00  1.0152178594566432e+00 0.0000000000000000e+00 0.0000000000000000e+00  1.0168836948341780e+00 0.0000000000000000e+00 0.0000000000000000e+00  1.0213715102664758e+00 0.0000000000000000e+00 0.0000000000000000e+00  1.0280886619004812e+00 0.0000000000000000e+00 0.0000000000000000e+00  1.0335291928994377e+00 0.0000000000000000e+00 0.0000000000000000e+00  1.0497652838005114e+00 0.0000000000000000e+00 0.0000000000000000e+00  1.0584194885498430e+00 0.0000000000000000e+00 0.0000000000000000e+00  1.0665073444790978e+00 0.0000000000000000e+00 0.0000000000000000e+00  1.0749619714595620e+00 0.0000000000000000e+00 0.0000000000000000e+00  1.0816124704883583e+00 0.0000000000000000e+00 0.0000000000000000e+00  1.0870863554763002e+00 0.0000000000000000e+00 0.0000000000000000e+00  1.0914460260480816e+00 0.0000000000000000e+00 0.0000000000000000e+00  1.0924095456892362e+00 0.0000000000000000e+00 0.0000000000000000e+00  1.0917357640962038e+00 0.0000000000000000e+00 0.0000000000000000e+00  1.0888390583904535e+00 0.0000000000000000e+00 0.0000000000000000e+00  1.0848482932421795e+00 0.0000000000000000e+00 0.0000000000000000e+00  1.0791229885151692e+00 0.0000000000000000e+00 0.0000000000000000e+00  1.0746007151853267e+00 0.0000000000000000e+00 0.0000000000000000e+00  1.0707714605778436e+00 0.0000000000000000e+00 0.0000000000000000e+00  1.0682151542600091e+00 0.0000000000000000e+00 0.0000000000000000e+00  1.0675932377108319e+00 0.0000000000000000e+00 0.0000000000000000e+00  1.0681387979175101e+00 0.0000000000000000e+00 0.0000000000000000e+00  1.0693835832706449e+00 0.0000000000000000e+00 0.0000000000000000e+00  1.0700189330980254e+00 0.0000000000000000e+00 0.0000000000000000e+00  1.0691336819863007e+00 0.0000000000000000e+00 0.0000000000000000e+00  1.0676089121428092e+00 0.0000000000000000e+00 0.0000000000000000e+00  1.0644625135727483e+00 0.0000000000000000e+00 0.0000000000000000e+00  1.0584796745841112e+00 0.0000000000000000e+00 0.0000000000000000e+00  1.0525197447232129e+00 0.0000000000000000e+00 0.0000000000000000e+00  1.0465012547617101e+00 0.0000000000000000e+00 0.0000000000000000e+00  1.0416084322441206e+00 0.0000000000000000e+00 0.0000000000000000e+00  1.0391142100632931e+00 0.0000000000000000e+00 0.0000000000000000e+00  1.0386966284736323e+00 0.0000000000000000e+00 0.0000000000000000e+00  1.0408069270152795e+00 0.0000000000000000e+00 0.0000000000000000e+00  1.0454147275259833e+00 0.0000000000000000e+00 0.0000000000000000e+00  1.0503724655661495e+00 0.0000000000000000e+00 0.0000000000000000e+00  1.0552289533180899e+00 0.0000000000000000e+00 0.0000000000000000e+00  1.0604979552687688e+00 0.0000000000000000e+00 0.0000000000000000e+00  1.0626424112214619e+00 0.0000000000000000e+00 0.0000000000000000e+00  1.0621618168837950e+00 0.0000000000000000e+00 0.0000000000000000e+00  1.0602901718424360e+00 0.0000000000000000e+00 0.0000000000000000e+00  1.0560569520235328e+00 0.0000000000000000e+00 0.0000000000000000e+00  1.0510739224802976e+00 0.0000000000000000e+00 0.0000000000000000e+00  1.0481165078012558e+00 0.0000000000000000e+00 0.0000000000000000e+00  1.0456071577088546e+00 0.0000000000000000e+00 0.0000000000000000e+00  1.0450180568496905e+00 0.0000000000000000e+00 0.0000000000000000e+00  1.0473223461828525e+00 0.0000000000000000e+00 0.0000000000000000e+00  1.0506459012942080e+00 0.0000000000000000e+00 0.0000000000000000e+00  1.0549238779335592e+00 0.0000000000000000e+00 0.0000000000000000e+00  1.0599372262001854e+00 0.0000000000000000e+00 0.0000000000000000e+00  1.0630596444906770e+00 0.0000000000000000e+00 0.0000000000000000e+00  1.0640601770032034e+00 0.0000000000000000e+00 0.0000000000000000e+00  1.0654514725216453e+00 0.0000000000000000e+00 0.0000000000000000e+00  1.0629431752286986e+00 0.0000000000000000e+00 0.0000000000000000e+00  1.0574910276763849e+00 0.0000000000000000e+00 0.0000000000000000e+00  1.0529067476607616e+00 0.0000000000000000e+00 0.0000000000000000e+00  1.0506901405599800e+00 0.0000000000000000e+00 0.0000000000000000e+00  1.0489997045322703e+00 0.0000000000000000e+00 0.0000000000000000e+00  1.0519826733919964e+00 0.0000000000000000e+00 0.0000000000000000e+00  1.0548382195204105e+00 0.0000000000000000e+00 0.0000000000000000e+00  1.0583318457513484e+00 0.0000000000000000e+00 0.0000000000000000e+00  1.0623074780825654e+00 0.0000000000000000e+00 0.0000000000000000e+00  1.0650330288078189e+00 0.0000000000000000e+00 0.0000000000000000e+00  1.0655476823959134e+00 0.0000000000000000e+00 0.0000000000000000e+00  1.0640951902548772e+00 0.0000000000000000e+00 0.0000000000000000e+00  1.0615224960121286e+00 0.0000000000000000e+00 0.0000000000000000e+00  1.0581912375736580e+00 0.0000000000000000e+00 0.0000000000000000e+00  1.0547682882350269e+00 0.0000000000000000e+00 0.0000000000000000e+00  1.0529849825499906e+00 0.0000000000000000e+00 0.0000000000000000e+00  1.0530334347475863e+00 0.0000000000000000e+00 0.0000000000000000e+00  1.0547297523797881e+00 0.0000000000000000e+00 0.0000000000000000e+00  1.0586522299841450e+00 0.0000000000000000e+00 0.0000000000000000e+00  1.0634092917690436e+00 0.0000000000000000e+00 0.0000000000000000e+00  1.0686925715397673e+00 0.0000000000000000e+00 0.0000000000000000e+00  1.0720219235835013e+00 0.0000000000000000e+00 0.0000000000000000e+00  1.0743470108872974e+00 0.0000000000000000e+00 0.0000000000000000e+00  1.0745871640413831e+00 0.0000000000000000e+00 0.0000000000000000e+00  1.0741776214615577e+00 0.0000000000000000e+00 0.0000000000000000e+00  1.0724322654815659e+00 0.0000000000000000e+00 0.0000000000000000e+00  1.0715794681265105e+00 0.0000000000000000e+00 0.0000000000000000e+00  1.0709447156894689e+00 0.0000000000000000e+00 0.0000000000000000e+00  1.0724765200942945e+00 -2.6377287923672467e-03 0.0000000000000000e+00  1.0700973758330696e+00 -5.2481062856963630e-03 0.0000000000000000e+00  1.0648865482000980e+00 -7.5106201134780689e-03 0.0000000000000000e+00  1.0530562010450804e+00 -8.9522033255559474e-03 0.0000000000000000e+00  1.0335775269834817e+00 -1.0188242700175092e-02 0.0000000000000000e+00  1.0017506130571163e+00 -9.1327595650879615e-03 0.0000000000000000e+00  9.5747965064783114e-01 -1.2914422038389628e-02 0.0000000000000000e+00  9.0509970937751638e-01 -2.2682568197176473e-02 0.0000000000000000e+00  8.4550790965528888e-01 -4.2963766654626742e-02 0.0000000000000000e+00  7.7989163465557154e-01 -6.6273675625192249e-02 0.0000000000000000e+00  7.2430374431971545e-01 -7.9017193997205720e-02 0.0000000000000000e+00  7.0601043912157357e-01 -7.7675288259849651e-02 0.0000000000000000e+00  7.5034874529312345e-01 -6.0530272069284657e-02 0.0000000000000000e+00  8.6182282161925083e-01 -3.6927474054005621e-02 0.0000000000000000e+00  1.0065813314703520e+00 -9.9426702449033908e-04 0.0000000000000000e+00  1.1275232788203897e+00 2.3302100830748629e-02 0.0000000000000000e+00  1.1859950897681990e+00 3.2072096698347728e-02 0.0000000000000000e+00  1.1871307426123014e+00 3.2683698820224032e-02 0.0000000000000000e+00  1.1584340723005480e+00 2.4524215632592154e-02 0.0000000000000000e+00  1.1286437944628616e+00 1.7586078026543890e-02 0.0000000000000000e+00  1.1096512011929189e+00 1.1910167726778590e-02 0.0000000000000000e+00  1.1003395048865199e+00 7.4922673462026520e-03 0.0000000000000000e+00  1.0949856146101726e+00 3.4591622231960242e-03 0.0000000000000000e+00  1.0881196766846455e+00 0.0000000000000000e+00 0.0000000000000000e+00  1.0818021117974908e+00 0.0000000000000000e+00 0.0000000000000000e+00  1.0745843349704387e+00 0.0000000000000000e+00 0.0000000000000000e+00  1.0681611493315550e+00 0.0000000000000000e+00 0.0000000000000000e+00  1.0625617569718000e+00 0.0000000000000000e+00 0.0000000000000000e+00  1.0596136175154931e+00 0.0000000000000000e+00 0.0000000000000000e+00  1.0590398220802724e+00 0.0000000000000000e+00 0.0000000000000000e+00  1.0607694506584455e+00 0.0000000000000000e+00 0.0000000000000000e+00  1.0630033587677670e+00 0.0000000000000000e+00 0.0000000000000000e+00  1.0658447073390414e+00 0.0000000000000000e+00 0.0000000000000000e+00  1.0678000701255270e+00 0.0000000000000000e+00 0.0000000000000000e+00  1.0682486296396945e+00 0.0000000000000000e+00 0.0000000000000000e+00  1.0668751787556672e+00 0.0000000000000000e+00 0.0000000000000000e+00  1.0645601604877488e+00 0.0000000000000000e+00 0.0000000000000000e+00  1.0602072158389162e+00 0.0000000000000000e+00 0.0000000000000000e+00  1.0567070983118807e+00 0.0000000000000000e+00 0.0000000000000000e+00  1.0525286750181424e+00 0.0000000000000000e+00 0.0000000000000000e+00  1.0504535719086960e+00 0.0000000000000000e+00 0.0000000000000000e+00  1.0501743146891982e+00 0.0000000000000000e+00 0.0000000000000000e+00  1.0524593050918687e+00 0.0000000000000000e+00 0.0000000000000000e+00  1.0558051428328437e+00 0.0000000000000000e+00 0.0000000000000000e+00  1.0594719633104346e+00 0.0000000000000000e+00 0.0000000000000000e+00  1.0629675977017776e+00 0.0000000000000000e+00 0.0000000000000000e+00  1.0640489580233781e+00 0.0000000000000000e+00 0.0000000000000000e+00  1.0619881309957613e+00 0.0000000000000000e+00 0.0000000000000000e+00  1.0575332707394955e+00 0.0000000000000000e+00 0.0000000000000000e+00  1.0539213594576997e+00 0.0000000000000000e+00 0.0000000000000000e+00  1.0514637669992586e+00 0.0000000000000000e+00 0.0000000000000000e+00  1.0490954872422762e+00 0.0000000000000000e+00 0.0000000000000000e+00  1.0465892867645761e+00 0.0000000000000000e+00 0.0000000000000000e+00  1.0483080121344783e+00 0.0000000000000000e+00 0.0000000000000000e+00  1.0516502477422021e+00 0.0000000000000000e+00 0.0000000000000000e+00  1.0551895797797481e+00 0.0000000000000000e+00 0.0000000000000000e+00  1.0593881691845553e+00 0.0000000000000000e+00 0.0000000000000000e+00  1.0625995631072200e+00 0.0000000000000000e+00 0.0000000000000000e+00  1.0632833242930215e+00 0.0000000000000000e+00 0.0000000000000000e+00  1.0624296204577375e+00 0.0000000000000000e+00 0.0000000000000000e+00  1.0591990422289941e+00 0.0000000000000000e+00 0.0000000000000000e+00  1.0536062655463376e+00 0.0000000000000000e+00 0.0000000000000000e+00  1.0487824918527027e+00 0.0000000000000000e+00 0.0000000000000000e+00  1.0444997163021037e+00 0.0000000000000000e+00 0.0000000000000000e+00  1.0408357171279896e+00 0.0000000000000000e+00 0.0000000000000000e+00  1.0403891067302120e+00 0.0000000000000000e+00 0.0000000000000000e+00  1.0420947710255346e+00 0.0000000000000000e+00 0.0000000000000000e+00  1.0447530812821673e+00 0.0000000000000000e+00 0.0000000000000000e+00  1.0501153939793875e+00 0.0000000000000000e+00 0.0000000000000000e+00  1.0556309671766946e+00 0.0000000000000000e+00 0.0000000000000000e+00  1.0595199051600450e+00 0.0000000000000000e+00 0.0000000000000000e+00  1.0619782830524513e+00 0.0000000000000000e+00 0.0000000000000000e+00  1.0621940735779913e+00 0.0000000000000000e+00 0.0000000000000000e+00  1.0596835113926262e+00 0.0000000000000000e+00 0.0000000000000000e+00  1.0559154678242886e+00 0.0000000000000000e+00 0.0000000000000000e+00  1.0514322898924613e+00 0.0000000000000000e+00 0.0000000000000000e+00  1.0472002966345111e+00 0.0000000000000000e+00 0.0000000000000000e+00  1.0452031911786572e+00 0.0000000000000000e+00 0.0000000000000000e+00  1.0442700747730294e+00 0.0000000000000000e+00 0.0000000000000000e+00  1.0462067708801310e+00 0.0000000000000000e+00 0.0000000000000000e+00  1.0511820635125513e+00 0.0000000000000000e+00 0.0000000000000000e+00  1.0578303096528265e+00 0.0000000000000000e+00 0.0000000000000000e+00  1.0649412312639299e+00 0.0000000000000000e+00 0.0000000000000000e+00  1.0718341133991616e+00 0.0000000000000000e+00 0.0000000000000000e+00  1.0785332272330841e+00 0.0000000000000000e+00 0.0000000000000000e+00  1.0848939822268502e+00 0.0000000000000000e+00 0.0000000000000000e+00  1.0890927076791064e+00 0.0000000000000000e+00 0.0000000000000000e+00  1.0915954175509155e+00 0.0000000000000000e+00 0.0000000000000000e+00  1.0941083488272516e+00 0.0000000000000000e+00 0.0000000000000000e+00  1.0936773644988453e+00 0.0000000000000000e+00 0.0000000000000000e+00  1.0929624879318389e+00 0.0000000000000000e+00 0.0000000000000000e+00  1.0907371562132475e+00 0.0000000000000000e+00 0.0000000000000000e+00  1.0867195530627998e+00 0.0000000000000000e+00 0.0000000000000000e+00  1.0817402174794288e+00 0.0000000000000000e+00 0.0000000000000000e+00  1.0760522630714977e+00 0.0000000000000000e+00 0.0000000000000000e+00  1.0695265503129132e+00 0.0000000000000000e+00 0.0000000000000000e+00  1.0617146147604197e+00 0.0000000000000000e+00 0.0000000000000000e+00  1.0545784376811034e+00 0.0000000000000000e+00 0.0000000000000000e+00  1.0467722796236700e+00 0.0000000000000000e+00 0.0000000000000000e+00  1.0319533954312290e+00 0.0000000000000000e+00 0.0000000000000000e+00  1.0255347230615899e+00 0.0000000000000000e+00 0.0000000000000000e+00  1.0204321001833141e+00 0.0000000000000000e+00 0.0000000000000000e+00  1.0158274065754851e+00 0.0000000000000000e+00 0.0000000000000000e+00  1.0120759360907916e+00 0.0000000000000000e+00 0.0000000000000000e+00  1.0091264506648483e+00 0.0000000000000000e+00 0.0000000000000000e+00  1.0069187031861615e+00 0.0000000000000000e+00 0.0000000000000000e+00  1.0048108963150342e+00 0.0000000000000000e+00 0.0000000000000000e+00  1.0033938864581027e+00 0.0000000000000000e+00 0.0000000000000000e+00  1.0024730373130115e+00 0.0000000000000000e+00 0.0000000000000000e+00  1.0013907750228839e+00 0.0000000000000000e+00 0.0000000000000000e+00  1.0013150274157592e+00 0.0000000000000000e+00 0.0000000000000000e+00  1.0003201314456891e+00 0.0000000000000000e+00 0.0000000000000000e+00  1.0003386777707628e+00 0.0000000000000000e+00 0.0000000000000000e+00  9.9992449177626763e-01 0.0000000000000000e+00 0.0000000000000000e+00  1.0005834706213768e+00 0.0000000000000000e+00 0.0000000000000000e+00  1.0002964105920302e+00 0.0000000000000000e+00 0.0000000000000000e+00  9.9980599194714426e-01 0.0000000000000000e+00 0.0000000000000000e+00  1.0000001298967141e+00 0.0000000000000000e+00 0.0000000000000000e+00  1.0000001298967141e+00 0.0000000000000000e+00 0.0000000000000000e+00  1.0000001298967141e+00 0.0000000000000000e+00 0.0000000000000000e+00  1.0000001298967141e+00 0.0000000000000000e+00 0.0000000000000000e+00  1.0000001298967141e+00 0.0000000000000000e+00 0.0000000000000000e+00  1.0000001298967141e+00 0.0000000000000000e+00 0.0000000000000000e+00  1.0000001298967141e+00 0.0000000000000000e+00 0.0000000000000000e+00  1.0000001298967141e+00 0.0000000000000000e+00 0.0000000000000000e+00  1.0000001298967141e+00 0.0000000000000000e+00 0.0000000000000000e+00  1.0000001298967141e+00 0.0000000000000000e+00 0.0000000000000000e+00  1.0000001298967141e+00 0.0000000000000000e+00 0.0000000000000000e+00  1.0000001298967141e+00 0.0000000000000000e+00 0.0000000000000000e+00  1.0000001298967141e+00 0.0000000000000000e+00 0.0000000000000000e+00  1.0000001298967141e+00 0.0000000000000000e+00 0.0000000000000000e+00  1.0000001298967141e+00 0.0000000000000000e+00 0.0000000000000000e+00  1.0000001298967141e+00 0.0000000000000000e+00 0.0000000000000000e+00  1.0000001298967141e+00 0.0000000000000000e+00 0.0000000000000000e+00  1.0000001298967141e+00 0.0000000000000000e+00 0.0000000000000000e+00  1.0000001298967141e+00 0.0000000000000000e+00 0.0000000000000000e+00  1.0000001298967141e+00 0.0000000000000000e+00 0.0000000000000000e+00  1.0409875986861508e+00 -9.5663147855008374e-03 0.0000000000000000e+00  1.0379688134851057e+00 -1.9324000692640557e-02 0.0000000000000000e+00  1.0356781054614934e+00 -2.9814503997075595e-02 0.0000000000000000e+00  1.0297956112112492e+00 -4.0889559893606722e-02 0.0000000000000000e+00  1.0237005132378123e+00 -5.6083613197795708e-02 0.0000000000000000e+00  1.0281597927527153e+00 -5.9621084594037109e-02 0.0000000000000000e+00  1.0322832106554189e+00 -6.3225755601839795e-02 0.0000000000000000e+00  1.0374229066706875e+00 -6.6539617491980008e-02 0.0000000000000000e+00  1.0428625522612773e+00 -6.9692721561212936e-02 0.0000000000000000e+00  1.0489455956485945e+00 -7.2433082923578293e-02 0.0000000000000000e+00  1.0556272122512307e+00 -7.4794776373922248e-02 0.0000000000000000e+00  1.0627898418325823e+00 -7.6480845974426101e-02 0.0000000000000000e+00  1.0704748347371564e+00 -7.7596362913028502e-02 0.0000000000000000e+00  1.0783293374709011e+00 -7.7799569018432699e-02 0.0000000000000000e+00  1.0865263803231366e+00 -7.7301264850915222e-02 0.0000000000000000e+00  1.0948008441649164e+00 -7.5964383444889358e-02 0.0000000000000000e+00  1.1031645549796847e+00 -7.3506765536561811e-02 0.0000000000000000e+00  1.1111841927505386e+00 -7.0044562025480830e-02 0.0000000000000000e+00  1.1189290268096819e+00 -6.5765657590668908e-02 0.0000000000000000e+00  1.1262359367583206e+00 -6.0568220119601765e-02 0.0000000000000000e+00  1.1328669122296200e+00 -5.4473243215273089e-02 0.0000000000000000e+00  1.1388320027686076e+00 -4.7634114522754067e-02 0.0000000000000000e+00  1.1439609840269387e+00 -4.0146696392691923e-02 0.0000000000000000e+00  1.1482463517549102e+00 -3.1914605918988800e-02 0.0000000000000000e+00  1.1515830485361220e+00 -2.3379593090604108e-02 0.0000000000000000e+00  1.1539273516672179e+00 -1.4297768083647662e-02 0.0000000000000000e+00  1.1550473990518135e+00 -4.8503820727905812e-03 0.0000000000000000e+00  1.1551885123493613e+00 4.7028015928864937e-03 0.0000000000000000e+00  1.1539807614135087e+00 1.4261852498861190e-02 0.0000000000000000e+00  1.1515844273798832e+00 2.3753624533678495e-02 0.0000000000000000e+00  1.1478856076792368e+00 3.2970456290506399e-02 0.0000000000000000e+00  1.1428880648320872e+00 4.1615663146047907e-02 0.0000000000000000e+00  1.1367029441682401e+00 4.9721030087812833e-02 0.0000000000000000e+00  1.1293065055538165e+00 5.7061569454716098e-02 0.0000000000000000e+00  1.1209198776517222e+00 6.3302794106602861e-02 0.0000000000000000e+00  1.1116178379424935e+00 6.8368309706