<?xml version="1.0"?>
<VTKFile type="UnstructuredGrid"  version="0.1"  >
<UnstructuredGrid>
<Piece  NumberOfPoints="10199" NumberOfCells="20110">
<Points>
<DataArray  type="Float64"  NumberOfComponents="3"  format="ascii">0 -5 0  8 -5 0  30 -5 0  40 -5 0  40 5 0  30 5 0  8 5 0  0 5 0  8 -2.5 0  15 -2.5 0  30 -2.5 0  30 2.5 0  15 2.5 0  8 2.5 0  10 0.5 0  10 -0.5 0  0 0 0  0.4210526315780956 -5 0  0.8421052631563433 -5 0  1.263157894734281 -5 0  1.684210526311999 -5 0  2.105263157889717 -5 0  2.526315789467435 -5 0  2.947368421045153 -5 0  3.368421052622872 -5 0  3.78947368420059 -5 0  4.210526315779479 -5 0  4.631578947359537 -5 0  5.052631578939595 -5 0  5.473684210519653 -5 0  5.89473684209971 -5 0  6.315789473679768 -5 0  6.736842105259826 -5 0  7.157894736839884 -5 0  7.578947368419942 -5 0  8.407407407405314 -5 0  8.814814814810628 -5 0  9.222222222215942 -5 0  9.629629629621256 -5 0  10.03703703702657 -5 0  10.44444444443188 -5 0  10.8518518518372 -5 0  11.25925925924251 -5 0  11.66666666664783 -5 0  12.07407407405314 -5 0  12.48148148145846 -5 0  12.88888888886377 -5 0  13.29629629626908 -5 0  13.7037037036744 -5 0  14.11111111107971 -5 0  14.51851851848502 -5 0  14.92592592589034 -5 0  15.33333333329565 -5 0  15.74074074070096 -5 0  16.14814814810754 -5 0  16.55555555551614 -5 0  16.96296296292474 -5 0  17.37037037033335 -5 0  17.77777777774195 -5 0  18.18518518515056 -5 0  18.59259259255916 -5 0  18.99999999996776 -5 0  19.40740740737636 -5 0  19.81481481478497 -5 0  20.22222222219357 -5 0  20.62962962960217 -5 0  21.03703703701077 -5 0  21.44444444441937 -5 0  21.85185185182797 -5 0  22.25925925923657 -5 0  22.66666666664518 -5 0  23.07407407405378 -5 0  23.48148148146238 -5 0  23.88888888887098 -5 0  24.29629629627958 -5 0  24.70370370368818 -5 0  25.11111111109678 -5 0  25.51851851850539 -5 0  25.92592592591399 -5 0  26.33333333332259 -5 0  26.74074074073119 -5 0  27.14814814813979 -5 0  27.55555555554839 -5 0  27.96296296295699 -5 0  28.3703703703656 -5 0  28.7777777777742 -5 0  29.1851851851828 -5 0  29.5925925925914 -5 0  30.41666666667852 -5 0  30.83333333335704 -5 0  31.25000000003556 -5 0  31.66666666671408 -5 0  32.08333333338936 -5 0  32.50000000005308 -5 0  32.9166666667168 -5 0  33.33333333338052 -5 0  33.75000000004424 -5 0  34.16666666670795 -5 0  34.58333333337167 -5 0  35.00000000003539 -5 0  35.41666666669911 -5 0  35.83333333336282 -5 0  36.25000000002654 -5 0  36.66666666669026 -5 0  37.08333333335398 -5 0  37.50000000001769 -5 0  37.91666666668141 -5 0  38.33333333334513 -5 0  38.75000000000885 -5 0  39.16666666667257 -5 0  39.58333333333628 -5 0  40 -4.583333333332821 0  40 -4.166666666665642 0  40 -3.74999999999855 0  40 -3.333333333333135 0  40 -2.916666666667806 0  40 -2.500000000002478 0  40 -2.083333333337148 0  40 -1.666666666671818 0  40 -1.250000000006488 0  40 -0.8333333333405228 0  40 -0.4166666666733416 0  40 -6.163070054299169e-12 0  40 0.4166666666610173 0  40 0.8333333333281976 0  40 1.249999999995378 0  40 1.666666666662558 0  40 2.083333333329739 0  40 2.499999999996919 0  40 2.916666666664099 0  40 3.33333333333128 0  40 3.74999999999846 0  40 4.166666666665641 0  40 4.583333333332821 0  39.58333333333628 5 0  39.16666666667256 5 0  38.75000000000885 5 0  38.33333333334513 5 0  37.91666666668141 5 0  37.50000000001769 5 0  37.08333333335398 5 0  36.66666666669025 5 0  36.25000000002654 5 0  35.83333333336282 5 0  35.41666666669911 5 0  35.00000000003539 5 0  34.58333333337167 5 0  34.16666666670795 5 0  33.75000000004424 5 0  33.33333333338052 5 0  32.9166666667168 5 0  32.50000000005308 5 0  32.08333333338936 5 0  31.66666666671408 5 0  31.25000000003556 5 0  30.83333333335704 5 0  30.41666666667852 5 0  29.59259259259259 5 0  29.18518518518519 5 0  28.77777777777778 5 0  28.37037037037037 5 0  27.96296296296296 5 0  27.55555555555556 5 0  27.14814814814815 5 0  26.74074074074074 5 0  26.33333333333333 5 0  25.92592592592593 5 0  25.51851851851852 5 0  25.11111111111111 5 0  24.7037037037037 5 0  24.2962962962963 5 0  23.88888888888889 5 0  23.48148148148148 5 0  23.07407407407408 5 0  22.66666666666667 5 0  22.25925925925926 5 0  21.85185185185185 5 0  21.44444444444445 5 0  21.03703703703704 5 0  20.62962962962963 5 0  20.22222222222222 5 0  19.81481481481482 5 0  19.40740740740741 5 0  19 5 0  18.5925925925926 5 0  18.18518518518519 5 0  17.77777777777778 5 0  17.37037037037037 5 0  16.96296296296296 5 0  16.55555555555556 5 0  16.14814814814815 5 0  15.74074074074074 5 0  15.33333333333333 5 0  14.92592592592593 5 0  14.51851851851852 5 0  14.11111111111111 5 0  13.70370370370371 5 0  13.2962962962963 5 0  12.88888888888889 5 0  12.48148148148148 5 0  12.07407407407408 5 0  11.66666666666667 5 0  11.25925925925926 5 0  10.85185185185185 5 0  10.44444444444445 5 0  10.03703703703704 5 0  9.629629629629633 5 0  9.222222222222221 5 0  8.814814814814817 5 0  8.407407407407408 5 0  7.5789473684193 5 0  7.157894736838599 5 0  6.73684210526082 5 0  6.315789473684795 5 0  5.894736842108769 5 0  5.473684210532742 5 0  5.052631578956715 5 0  4.631578947380689 5 0  4.210526315804662 5 0  3.789473684226299 5 0  3.368421052645599 5 0  2.947368421064898 5 0  2.526315789484198 5 0  2.105263157903499 5 0  1.6842105263228 5 0  1.2631578947421 5 0  0.8421052631613994 5 0  0.4210526315806993 5 0  0 4.545454545454545 0  0 4.09090909090909 0  0 3.636363636363634 0  0 3.18181818181818 0  0 2.727272727272726 0  0 2.272727272727271 0  0 1.818181818181817 0  0 1.363636363636363 0  0 0.9090909090909092 0  0 0.454545454545455 0  0 -0.4545454545450807 0  0 -0.9090909090895867 0  0 -1.363636363633713 0  0 -1.818181818177841 0  0 -2.272727272723127 0  0 -2.727272727269273 0  0 -3.181818181815419 0  0 -3.636363636361564 0  0 -4.090909090907709 0  0 -4.545454545453855 0  8 -4.499999999999999 0  8 -3.999999999999999 0  8 -3.499999999999999 0  8 -3 0  8.137254901963859 -2.5 0  8.274509803926303 -2.5 0  8.411764705886863 -2.5 0  8.549019607849138 -2.5 0  8.686274509809513 -2.5 0  8.82352941176989 -2.5 0  8.960784313730265 -2.5 0  9.098039215690642 -2.5 0  9.235294117651017 -2.5 0  9.372549019611395 -2.5 0  9.50980392157177 -2.5 0  9.647058823532147 -2.5 0  9.784313725492522 -2.5 0  9.921568627452897 -2.5 0  10.05882352941327 -2.5 0  10.19607843137365 -2.5 0  10.33333333333402 -2.5 0  10.4705882352944 -2.5 0  10.60784313725478 -2.5 0  10.74509803921515 -2.5 0  10.88235294117553 -2.5 0  11.0196078431359 -2.5 0  11.15686274509628 -2.5 0  11.29411764705665 -2.5 0  11.43137254901703 -2.5 0  11.56862745097915 -2.5 0  11.70588235294301 -2.5 0  11.84313725490686 -2.5 0  11.98039215687072 -2.5 0  12.11764705883209 -2.5 0  12.25490196079247 -2.5 0  12.39215686275285 -2.5 0  12.52941176471322 -2.5 0  12.6666666666736 -2.5 0  12.80392156863397 -2.5 0  12.94117647059435 -2.5 0  13.07843137255473 -2.5 0  13.2156862745151 -2.5 0  13.35294117647548 -2.5 0  13.49019607843586 -2.5 0  13.62745098039623 -2.5 0  13.76470588235661 -2.5 0  13.90196078431699 -2.5 0  14.03921568627736 -2.5 0  14.17647058823774 -2.5 0  14.31372549019812 -2.5 0  14.45098039215849 -2.5 0  14.58823529411887 -2.5 0  14.72549019607925 -2.5 0  14.86274509803962 -2.5 0  15.20270270270254 -2.5 0  15.40540540540509 -2.5 0  15.60810810810763 -2.5 0  15.81081081081017 -2.5 0  16.01351351351227 -2.5 0  16.21621621621265 -2.5 0  16.41891891891279 -2.5 0  16.62162162161294 -2.5 0  16.82432432431308 -2.5 0  17.02702702701322 -2.5 0  17.22972972971337 -2.5 0  17.43243243241351 -2.5 0  17.63513513511365 -2.5 0  17.83783783781379 -2.5 0  18.04054054051394 -2.5 0  18.24324324321408 -2.5 0  18.44594594591422 -2.5 0  18.64864864861436 -2.5 0  18.85135135131451 -2.5 0  19.05405405401465 -2.5 0  19.25675675671479 -2.5 0  19.45945945941494 -2.5 0  19.66216216211508 -2.5 0  19.86486486481522 -2.5 0  20.06756756751536 -2.5 0  20.27027027021551 -2.5 0  20.47297297291565 -2.5 0  20.6756756756158 -2.5 0  20.87837837831594 -2.5 0  21.08108108101608 -2.5 0  21.28378378371622 -2.5 0  21.48648648641637 -2.5 0  21.68918918911651 -2.5 0  21.89189189181666 -2.5 0  22.0945945945168 -2.5 0  22.29729729721694 -2.5 0  22.49999999991778 -2.5 0  22.70270270262203 -2.5 0  22.90540540532697 -2.5 0  23.10810810803191 -2.5 0  23.31081081073686 -2.5 0  23.5135135134418 -2.5 0  23.71621621614674 -2.5 0  23.91891891885169 -2.5 0  24.12162162155663 -2.5 0  24.32432432426158 -2.5 0  24.52702702696652 -2.5 0  24.72972972967146 -2.5 0  24.93243243237641 -2.5 0  25.13513513508135 -2.5 0  25.3378378377863 -2.5 0  25.54054054049124 -2.5 0  25.74324324319618 -2.5 0  25.94594594590112 -2.5 0  26.14864864860607 -2.5 0  26.35135135131101 -2.5 0  26.55405405401596 -2.5 0  26.7567567567209 -2.5 0  26.95945945942584 -2.5 0  27.16216216213079 -2.5 0  27.36486486483573 -2.5 0  27.56756756754068 -2.5 0  27.77027027024562 -2.5 0  27.97297297295056 -2.5 0  28.1756756756555 -2.5 0  28.37837837836045 -2.5 0  28.5810810810654 -2.5 0  28.78378378377034 -2.5 0  28.98648648647528 -2.5 0  29.18918918918023 -2.5 0  29.39189189188517 -2.5 0  29.59459459459011 -2.5 0  29.79729729729506 -2.5 0  30 -3.000000000000001 0  30 -3.500000000000001 0  30 -4.000000000000001 0  30 -4.5 0  8 4.499999999999999 0  8 3.999999999999999 0  8 3.499999999999999 0  8 3 0  8.137254901963859 2.5 0  8.274509803926303 2.5 0  8.411764705886863 2.5 0  8.549019607849138 2.5 0  8.686274509809513 2.5 0  8.82352941176989 2.5 0  8.960784313730265 2.5 0  9.098039215690642 2.5 0  9.235294117651017 2.5 0  9.372549019611395 2.5 0  9.50980392157177 2.5 0  9.647058823532147 2.5 0  9.784313725492522 2.5 0  9.921568627452897 2.5 0  10.05882352941327 2.5 0  10.19607843137365 2.5 0  10.33333333333402 2.5 0  10.4705882352944 2.5 0  10.60784313725478 2.5 0  10.74509803921515 2.5 0  10.88235294117553 2.5 0  11.0196078431359 2.5 0  11.15686274509628 2.5 0  11.29411764705665 2.5 0  11.43137254901703 2.5 0  11.56862745097915 2.5 0  11.70588235294301 2.5 0  11.84313725490686 2.5 0  11.98039215687072 2.5 0  12.11764705883209 2.5 0  12.25490196079247 2.5 0  1
[...]
<PointData  Vectors="f_17"> 
<DataArray  type="Float64"  Name="f_17"  NumberOfComponents="3" format="ascii">1.0000001318731699e+00 0.0000000000000000e+00 0.0000000000000000e+00  1.0388996148760599e+00 0.0000000000000000e+00 0.0000000000000000e+00  1.0612692351375397e+00 0.0000000000000000e+00 0.0000000000000000e+00  1.0864995298183804e+00 0.0000000000000000e+00 0.0000000000000000e+00  1.0777848560761760e+00 0.0000000000000000e+00 0.0000000000000000e+00  1.0531474172008430e+00 0.0000000000000000e+00 0.0000000000000000e+00  1.0419679288240853e+00 0.0000000000000000e+00 0.0000000000000000e+00  1.0000001318731699e+00 0.0000000000000000e+00 0.0000000000000000e+00  1.0189592455399057e+00 -4.9164219325997835e-02 0.0000000000000000e+00  1.0151454228329260e+00 7.6110393828012241e-02 0.0000000000000000e+00  1.0798972982329482e+00 7.1857545718174265e-02 0.0000000000000000e+00  1.0441125201045087e+00 8.1102554850833619e-02 0.0000000000000000e+00  1.1144323198287842e+00 4.3443227523582484e-02 0.0000000000000000e+00  1.0238197219979055e+00 5.2437270634629517e-02 0.0000000000000000e+00  0.0000000000000000e+00 0.0000000000000000e+00 0.0000000000000000e+00  0.0000000000000000e+00 0.0000000000000000e+00 0.0000000000000000e+00  1.0000001318731699e+00 0.0000000000000000e+00 0.0000000000000000e+00  9.9930121698253349e-01 0.0000000000000000e+00 0.0000000000000000e+00  9.9875494174090840e-01 0.0000000000000000e+00 0.0000000000000000e+00  1.0007923073063627e+00 0.0000000000000000e+00 0.0000000000000000e+00  1.0005567935521018e+00 0.0000000000000000e+00 0.0000000000000000e+00  1.0014286898671225e+00 0.0000000000000000e+00 0.0000000000000000e+00  1.0016060417052306e+00 0.0000000000000000e+00 0.0000000000000000e+00  1.0017197453567919e+00 0.0000000000000000e+00 0.0000000000000000e+00  1.0023410362238059e+00 0.0000000000000000e+00 0.0000000000000000e+00  1.0033502198094408e+00 0.0000000000000000e+00 0.0000000000000000e+00  1.0042770497050306e+00 0.0000000000000000e+00 0.0000000000000000e+00  1.0055567384597772e+00 0.0000000000000000e+00 0.0000000000000000e+00  1.0076249075668207e+00 0.0000000000000000e+00 0.0000000000000000e+00  1.0098087781730780e+00 0.0000000000000000e+00 0.0000000000000000e+00  1.0135782800429916e+00 0.0000000000000000e+00 0.0000000000000000e+00  1.0151287558954833e+00 0.0000000000000000e+00 0.0000000000000000e+00  1.0194791472264220e+00 0.0000000000000000e+00 0.0000000000000000e+00  1.0259960875930061e+00 0.0000000000000000e+00 0.0000000000000000e+00  1.0311890620293365e+00 0.0000000000000000e+00 0.0000000000000000e+00  1.0467239167301678e+00 0.0000000000000000e+00 0.0000000000000000e+00  1.0550795189231170e+00 0.0000000000000000e+00 0.0000000000000000e+00  1.0630011260693149e+00 0.0000000000000000e+00 0.0000000000000000e+00  1.0715424954688730e+00 0.0000000000000000e+00 0.0000000000000000e+00  1.0787856451493951e+00 0.0000000000000000e+00 0.0000000000000000e+00  1.0854898292010973e+00 0.0000000000000000e+00 0.0000000000000000e+00  1.0918373810544670e+00 0.0000000000000000e+00 0.0000000000000000e+00  1.0955452629701858e+00 0.0000000000000000e+00 0.0000000000000000e+00  1.0981666609601364e+00 0.0000000000000000e+00 0.0000000000000000e+00  1.0986444485521685e+00 0.0000000000000000e+00 0.0000000000000000e+00  1.0975294400906754e+00 0.0000000000000000e+00 0.0000000000000000e+00  1.0933803296193982e+00 0.0000000000000000e+00 0.0000000000000000e+00  1.0884433962431332e+00 0.0000000000000000e+00 0.0000000000000000e+00  1.0817689078158790e+00 0.0000000000000000e+00 0.0000000000000000e+00  1.0740967197702767e+00 0.0000000000000000e+00 0.0000000000000000e+00  1.0666724373857173e+00 0.0000000000000000e+00 0.0000000000000000e+00  1.0598183366280896e+00 0.0000000000000000e+00 0.0000000000000000e+00  1.0545714675263698e+00 0.0000000000000000e+00 0.0000000000000000e+00  1.0510401193820775e+00 0.0000000000000000e+00 0.0000000000000000e+00  1.0495782234639164e+00 0.0000000000000000e+00 0.0000000000000000e+00  1.0513750937829531e+00 0.0000000000000000e+00 0.0000000000000000e+00  1.0551064872226106e+00 0.0000000000000000e+00 0.0000000000000000e+00  1.0582951372510128e+00 0.0000000000000000e+00 0.0000000000000000e+00  1.0618228726656744e+00 0.0000000000000000e+00 0.0000000000000000e+00  1.0637705345305168e+00 0.0000000000000000e+00 0.0000000000000000e+00  1.0634701069446830e+00 0.0000000000000000e+00 0.0000000000000000e+00  1.0613864110037905e+00 0.0000000000000000e+00 0.0000000000000000e+00  1.0569767186250627e+00 0.0000000000000000e+00 0.0000000000000000e+00  1.0517073032669746e+00 0.0000000000000000e+00 0.0000000000000000e+00  1.0468050477342565e+00 0.0000000000000000e+00 0.0000000000000000e+00  1.0422994054388646e+00 0.0000000000000000e+00 0.0000000000000000e+00  1.0395512761476569e+00 0.0000000000000000e+00 0.0000000000000000e+00  1.0407083981312895e+00 0.0000000000000000e+00 0.0000000000000000e+00  1.0430883138847822e+00 0.0000000000000000e+00 0.0000000000000000e+00  1.0470471363334586e+00 0.0000000000000000e+00 0.0000000000000000e+00  1.0529918368639402e+00 0.0000000000000000e+00 0.0000000000000000e+00  1.0577736535209503e+00 0.0000000000000000e+00 0.0000000000000000e+00  1.0610716594794392e+00 0.0000000000000000e+00 0.0000000000000000e+00  1.0637227758851071e+00 0.0000000000000000e+00 0.0000000000000000e+00  1.0631430578229986e+00 0.0000000000000000e+00 0.0000000000000000e+00  1.0603083106310207e+00 0.0000000000000000e+00 0.0000000000000000e+00  1.0569734927557513e+00 0.0000000000000000e+00 0.0000000000000000e+00  1.0526845831104583e+00 0.0000000000000000e+00 0.0000000000000000e+00  1.0491819155533704e+00 0.0000000000000000e+00 0.0000000000000000e+00  1.0478960782355511e+00 0.0000000000000000e+00 0.0000000000000000e+00  1.0476664761365559e+00 0.0000000000000000e+00 0.0000000000000000e+00  1.0491034288200858e+00 0.0000000000000000e+00 0.0000000000000000e+00  1.0545796153343441e+00 0.0000000000000000e+00 0.0000000000000000e+00  1.0586110098453325e+00 0.0000000000000000e+00 0.0000000000000000e+00  1.0607926409711141e+00 0.0000000000000000e+00 0.0000000000000000e+00  1.0628306884113321e+00 0.0000000000000000e+00 0.0000000000000000e+00  1.0646454227994437e+00 0.0000000000000000e+00 0.0000000000000000e+00  1.0635195152317052e+00 0.0000000000000000e+00 0.0000000000000000e+00  1.0576622357953804e+00 0.0000000000000000e+00 0.0000000000000000e+00  1.0534700058126503e+00 0.0000000000000000e+00 0.0000000000000000e+00  1.0503269199513552e+00 0.0000000000000000e+00 0.0000000000000000e+00  1.0497917631235041e+00 0.0000000000000000e+00 0.0000000000000000e+00  1.0514047257592620e+00 0.0000000000000000e+00 0.0000000000000000e+00  1.0541724598196420e+00 0.0000000000000000e+00 0.0000000000000000e+00  1.0581796387823854e+00 0.0000000000000000e+00 0.0000000000000000e+00  1.0624023157101565e+00 0.0000000000000000e+00 0.0000000000000000e+00  1.0659360104835185e+00 0.0000000000000000e+00 0.0000000000000000e+00  1.0673456401462962e+00 0.0000000000000000e+00 0.0000000000000000e+00  1.0675016615268380e+00 0.0000000000000000e+00 0.0000000000000000e+00  1.0656739879348891e+00 0.0000000000000000e+00 0.0000000000000000e+00  1.0625885198900213e+00 0.0000000000000000e+00 0.0000000000000000e+00  1.0598154137421971e+00 0.0000000000000000e+00 0.0000000000000000e+00  1.0577298629803469e+00 0.0000000000000000e+00 0.0000000000000000e+00  1.0577530611779700e+00 0.0000000000000000e+00 0.0000000000000000e+00  1.0590552199294014e+00 0.0000000000000000e+00 0.0000000000000000e+00  1.0629310928582900e+00 0.0000000000000000e+00 0.0000000000000000e+00  1.0680452722374840e+00 0.0000000000000000e+00 0.0000000000000000e+00  1.0744217472169906e+00 0.0000000000000000e+00 0.0000000000000000e+00  1.0796836653608797e+00 0.0000000000000000e+00 0.0000000000000000e+00  1.0841815829872274e+00 0.0000000000000000e+00 0.0000000000000000e+00  1.0858367835100420e+00 0.0000000000000000e+00 0.0000000000000000e+00  1.0879382011559553e+00 6.6047522012077653e-04 0.0000000000000000e+00  1.0917279305362726e+00 2.0715949687310194e-03 0.0000000000000000e+00  1.0990362141198935e+00 5.4543512289555894e-03 0.0000000000000000e+00  1.1107780794232105e+00 1.3064772348628469e-02 0.0000000000000000e+00  1.1303102122985980e+00 2.9496341022212613e-02 0.0000000000000000e+00  1.1461672561963463e+00 5.5741324396848722e-02 0.0000000000000000e+00  1.1374757686348125e+00 1.0056257045752316e-01 0.0000000000000000e+00  1.0860682618548227e+00 1.5168900596489873e-01 0.0000000000000000e+00  9.8912601686718704e-01 2.0516972048467827e-01 0.0000000000000000e+00  8.7205546662304301e-01 2.3881491962237469e-01 0.0000000000000000e+00  7.7566253564652743e-01 2.5833385651723684e-01 0.0000000000000000e+00  7.2868742352371207e-01 2.5979305509354639e-01 0.0000000000000000e+00  7.3895411345389517e-01 2.5325592447266593e-01 0.0000000000000000e+00  7.8966631668031695e-01 2.4658455461187723e-01 0.0000000000000000e+00  8.6429579472592266e-01 2.2383223443754183e-01 0.0000000000000000e+00  9.3555516963185337e-01 1.8348341416748171e-01 0.0000000000000000e+00  9.8585941607392202e-01 1.3420942688247839e-01 0.0000000000000000e+00  1.0184808505193277e+00 8.7739181266569891e-02 0.0000000000000000e+00  1.0425606536883758e+00 5.9180769571130845e-02 0.0000000000000000e+00  1.0604688760392429e+00 3.9182052366994166e-02 0.0000000000000000e+00  1.0704214510232257e+00 2.5613223891722617e-02 0.0000000000000000e+00  1.0758920504381093e+00 1.5385390610229048e-02 0.0000000000000000e+00  1.0777285283216531e+00 7.1104799112873870e-03 0.0000000000000000e+00  1.0717162858871012e+00 0.0000000000000000e+00 0.0000000000000000e+00  1.0680689314157183e+00 0.0000000000000000e+00 0.0000000000000000e+00  1.0666967799697322e+00 0.0000000000000000e+00 0.0000000000000000e+00  1.0676014783990739e+00 0.0000000000000000e+00 0.0000000000000000e+00  1.0688517526125147e+00 0.0000000000000000e+00 0.0000000000000000e+00  1.0705351038245430e+00 0.0000000000000000e+00 0.0000000000000000e+00  1.0715959078635864e+00 0.0000000000000000e+00 0.0000000000000000e+00  1.0712430395953481e+00 0.0000000000000000e+00 0.0000000000000000e+00  1.0684518529987825e+00 0.0000000000000000e+00 0.0000000000000000e+00  1.0645599435886455e+00 0.0000000000000000e+00 0.0000000000000000e+00  1.0598671618543634e+00 0.0000000000000000e+00 0.0000000000000000e+00  1.0553142015365782e+00 0.0000000000000000e+00 0.0000000000000000e+00  1.0520900779006130e+00 0.0000000000000000e+00 0.0000000000000000e+00  1.0514550883129250e+00 0.0000000000000000e+00 0.0000000000000000e+00  1.0521529680918986e+00 0.0000000000000000e+00 0.0000000000000000e+00  1.0554796203708268e+00 0.0000000000000000e+00 0.0000000000000000e+00  1.0585306556512089e+00 0.0000000000000000e+00 0.0000000000000000e+00  1.0620361849975992e+00 0.0000000000000000e+00 0.0000000000000000e+00  1.0642062968780222e+00 0.0000000000000000e+00 0.0000000000000000e+00  1.0652503067713937e+00 0.0000000000000000e+00 0.0000000000000000e+00  1.0640974225783713e+00 0.0000000000000000e+00 0.0000000000000000e+00  1.0607567165234684e+00 0.0000000000000000e+00 0.0000000000000000e+00  1.0571285102650463e+00 0.0000000000000000e+00 0.0000000000000000e+00  1.0495075059178940e+00 0.0000000000000000e+00 0.0000000000000000e+00  1.0480862471845191e+00 0.0000000000000000e+00 0.0000000000000000e+00  1.0475667091594143e+00 0.0000000000000000e+00 0.0000000000000000e+00  1.0504094067666436e+00 0.0000000000000000e+00 0.0000000000000000e+00  1.0554839629052568e+00 0.0000000000000000e+00 0.0000000000000000e+00  1.0596905680658895e+00 0.0000000000000000e+00 0.0000000000000000e+00  1.0614975960036912e+00 0.0000000000000000e+00 0.0000000000000000e+00  1.0639857078830302e+00 0.0000000000000000e+00 0.0000000000000000e+00  1.0641738398981575e+00 0.0000000000000000e+00 0.0000000000000000e+00  1.0613863166672319e+00 0.0000000000000000e+00 0.0000000000000000e+00  1.0575559200916060e+00 0.0000000000000000e+00 0.0000000000000000e+00  1.0528976744250897e+00 0.0000000000000000e+00 0.0000000000000000e+00  1.0477946377963774e+00 0.0000000000000000e+00 0.0000000000000000e+00  1.0447664207177929e+00 0.0000000000000000e+00 0.0000000000000000e+00  1.0435975173784497e+00 0.0000000000000000e+00 0.0000000000000000e+00  1.0436699305064026e+00 0.0000000000000000e+00 0.0000000000000000e+00  1.0470173546106627e+00 0.0000000000000000e+00 0.0000000000000000e+00  1.0515622093795491e+00 0.0000000000000000e+00 0.0000000000000000e+00  1.0556076488528690e+00 0.0000000000000000e+00 0.0000000000000000e+00  1.0597435041602301e+00 0.0000000000000000e+00 0.0000000000000000e+00  1.0619758478729830e+00 0.0000000000000000e+00 0.0000000000000000e+00  1.0608100992495060e+00 0.0000000000000000e+00 0.0000000000000000e+00  1.0586284271275657e+00 0.0000000000000000e+00 0.0000000000000000e+00  1.0545063410415445e+00 0.0000000000000000e+00 0.0000000000000000e+00  1.0485881519005622e+00 0.0000000000000000e+00 0.0000000000000000e+00  1.0434938654471644e+00 0.0000000000000000e+00 0.0000000000000000e+00  1.0397650754828167e+00 0.0000000000000000e+00 0.0000000000000000e+00  1.0379022676962177e+00 0.0000000000000000e+00 0.0000000000000000e+00  1.0389298228412129e+00 0.0000000000000000e+00 0.0000000000000000e+00  1.0424318125997454e+00 0.0000000000000000e+00 0.0000000000000000e+00  1.0474528400251202e+00 0.0000000000000000e+00 0.0000000000000000e+00  1.0543051310486062e+00 0.0000000000000000e+00 0.0000000000000000e+00  1.0600126538978270e+00 0.0000000000000000e+00 0.0000000000000000e+00  1.0653044693894869e+00 0.0000000000000000e+00 0.0000000000000000e+00  1.0699464115128481e+00 0.0000000000000000e+00 0.0000000000000000e+00  1.0727515243528689e+00 0.0000000000000000e+00 0.0000000000000000e+00  1.0736148376872807e+00 0.0000000000000000e+00 0.0000000000000000e+00  1.0731568647813921e+00 0.0000000000000000e+00 0.0000000000000000e+00  1.0729624972058485e+00 0.0000000000000000e+00 0.0000000000000000e+00  1.0740505530497371e+00 0.0000000000000000e+00 0.0000000000000000e+00  1.0752665837280546e+00 0.0000000000000000e+00 0.0000000000000000e+00  1.0772931140644237e+00 0.0000000000000000e+00 0.0000000000000000e+00  1.0813878819647986e+00 0.0000000000000000e+00 0.0000000000000000e+00  1.0838835472958506e+00 0.0000000000000000e+00 0.0000000000000000e+00  1.0866061113415442e+00 0.0000000000000000e+00 0.0000000000000000e+00  1.0877044295151888e+00 0.0000000000000000e+00 0.0000000000000000e+00  1.0864489056417215e+00 0.0000000000000000e+00 0.0000000000000000e+00  1.0834374421687580e+00 0.0000000000000000e+00 0.0000000000000000e+00  1.0789585706530567e+00 0.0000000000000000e+00 0.0000000000000000e+00  1.0730015237666570e+00 0.0000000000000000e+00 0.0000000000000000e+00  1.0652591683444450e+00 0.0000000000000000e+00 0.0000000000000000e+00  1.0579571923322362e+00 0.0000000000000000e+00 0.0000000000000000e+00  1.0498351935151886e+00 0.0000000000000000e+00 0.0000000000000000e+00  1.0343004113357983e+00 0.0000000000000000e+00 0.0000000000000000e+00  1.0276243405254823e+00 0.0000000000000000e+00 0.0000000000000000e+00  1.0223355988916980e+00 0.0000000000000000e+00 0.0000000000000000e+00  1.0175976552396631e+00 0.0000000000000000e+00 0.0000000000000000e+00  1.0137227146566763e+00 0.0000000000000000e+00 0.0000000000000000e+00  1.0106578639242960e+00 0.0000000000000000e+00 0.0000000000000000e+00  1.0083021488037032e+00 0.0000000000000000e+00 0.0000000000000000e+00  1.0060010089075051e+00 0.0000000000000000e+00 0.0000000000000000e+00  1.0043636402590530e+00 0.0000000000000000e+00 0.0000000000000000e+00  1.0031773909245223e+00 0.0000000000000000e+00 0.0000000000000000e+00  1.0018328164705044e+00 0.0000000000000000e+00 0.0000000000000000e+00  1.0015327539965295e+00 0.0000000000000000e+00 0.0000000000000000e+00  1.0003508550213225e+00 0.0000000000000000e+00 0.0000000000000000e+00  1.0002412211057168e+00 0.0000000000000000e+00 0.0000000000000000e+00  9.9979641660009855e-01 0.0000000000000000e+00 0.0000000000000000e+00  1.0004564494625217e+00 0.0000000000000000e+00 0.0000000000000000e+00  1.0002248530600790e+00 0.0000000000000000e+00 0.0000000000000000e+00  9.9979245878582590e-01 0.0000000000000000e+00 0.0000000000000000e+00  1.0000001318731699e+00 0.0000000000000000e+00 0.0000000000000000e+00  1.0000001318731699e+00 0.0000000000000000e+00 0.0000000000000000e+00  1.0000001318731699e+00 0.0000000000000000e+00 0.0000000000000000e+00  1.0000001318731699e+00 0.0000000000000000e+00 0.0000000000000000e+00  1.0000001318731699e+00 0.0000000000000000e+00 0.0000000000000000e+00  1.0000001318731699e+00 0.0000000000000000e+00 0.0000000000000000e+00  1.0000001318731699e+00 0.0000000000000000e+00 0.0000000000000000e+00  1.0000001318731699e+00 0.0000000000000000e+00 0.0000000000000000e+00  1.0000001318731699e+00 0.0000000000000000e+00 0.0000000000000000e+00  1.0000001318731699e+00 0.0000000000000000e+00 0.0000000000000000e+00  1.0000001318731699e+00 0.0000000000000000e+00 0.0000000000000000e+00  1.0000001318731699e+00 0.0000000000000000e+00 0.0000000000000000e+00  1.0000001318731699e+00 0.0000000000000000e+00 0.0000000000000000e+00  1.0000001318731699e+00 0.0000000000000000e+00 0.0000000000000000e+00  1.0000001318731699e+00 0.0000000000000000e+00 0.0000000000000000e+00  1.0000001318731699e+00 0.0000000000000000e+00 0.0000000000000000e+00  1.0000001318731699e+00 0.0000000000000000e+00 0.0000000000000000e+00  1.0000001318731699e+00 0.0000000000000000e+00 0.0000000000000000e+00  1.0000001318731699e+00 0.0000000000000000e+00 0.0000000000000000e+00  1.0000001318731699e+00 0.0000000000000000e+00 0.0000000000000000e+00  1.0382629597159907e+00 -9.0985613941504100e-03 0.0000000000000000e+00  1.0352180637546258e+00 -1.8367021378032710e-02 0.0000000000000000e+00  1.0329465783771432e+00 -2.8366922635595392e-02 0.0000000000000000e+00  1.0272543947252610e+00 -3.8691616430362508e-02 0.0000000000000000e+00  1.0214808508745739e+00 -5.2705653502819381e-02 0.0000000000000000e+00  1.0257442933856837e+00 -5.5909081285491380e-02 0.0000000000000000e+00  1.0295721114299770e+00 -5.9183639107392348e-02 0.0000000000000000e+00  1.0343866828906321e+00 -6.2140752756282364e-02 0.0000000000000000e+00  1.0394117644509471e+00 -6.4950143019812293e-02 0.0000000000000000e+00  1.0450075694332841e+00 -6.7328152525085616e-02 0.0000000000000000e+00  1.0511209724821178e+00 -6.9362886969074167e-02 0.0000000000000000e+00  1.0575715891920985e+00 -7.0748056671829346e-02 0.0000000000000000e+00  1.0644610699596071e+00 -7.1593040799192556e-02 0.0000000000000000e+00  1.0713311554002838e+00 -7.1584292476478545e-02 0.0000000000000000e+00  1.0784089646968134e+00 -7.0996489988867206e-02 0.0000000000000000e+00  1.0853406374003265e+00 -6.9748405613097211e-02 0.0000000000000000e+00  1.0922329184668806e+00 -6.7521688076381883e-02 0.0000000000000000e+00  1.0985892523899663e+00 -6.4505932316628711e-02 0.0000000000000000e+00  1.1044709118052141e+00 -6.1039006268503913e-02 0.0000000000000000e+00  1.1097614150194570e+00 -5.7021588409431639e-02 0.0000000000000000e+00  1.1143149615038648e+00 -5.2641591121078600e-02 0.0000000000000000e+00  1.1180935367286280e+00 -4.8010214043823017e-02 0.0000000000000000e+00  1.1212457597560310e+00 -4.3425479958656886e-02 0.0000000000000000e+00  1.1237050704098555e+00 -3.8753986414507648e-02 0.0000000000000000e+00  1.1256170557939191e+00 -3.4554535252962169e-02 0.0000000000000000e+00  1.1270655787806363e+00 -3.0329488480733819e-02 0.0000000000000000e+00  1.1281887316391039e+00 -2.6500793034036265e-02 0.0000000000000000e+00  1.1292457108189549e+00 -2.3134157913991781e-02 0.0000000000000000e+00  1.1302660325150609e+00 -2.0077577357948368e-02 0.0000000000000000e+00  1.1313784695877216e+00 -1.7231542775489547e-02 0.0000000000000000e+00  1.1326958711713342e+00 -1.4371763811482792e-02 0.0000000000000000e+00  1.1343131277656795e+00 -1.1465558385459271e-02 0.0000000000000000e+00  1.1360914704579428e+00 -8.2621862722061130e-03 0.0000000000000000e+00  1.1381305644048869e+00 -4.6015102024734933e-03 0.0000000000000000e+00  1.1401915529752487e+00 -3.7014861972085747e-04 0.0000000000000000e+00  1.1421275544542950e+00 4.6071541526214125e-03 