<?xml version="1.0"?>
<VTKFile type="UnstructuredGrid"  version="0.1"  >
<UnstructuredGrid>
<Piece  NumberOfPoints="10199" NumberOfCells="20110">
<Points>
<DataArray  type="Float64"  NumberOfComponents="3"  format="ascii">0 -5 0  8 -5 0  30 -5 0  40 -5 0  40 5 0  30 5 0  8 5 0  0 5 0  8 -2.5 0  15 -2.5 0  30 -2.5 0  30 2.5 0  15 2.5 0  8 2.5 0  10 0.5 0  10 -0.5 0  0 0 0  0.4210526315780956 -5 0  0.8421052631563433 -5 0  1.263157894734281 -5 0  1.684210526311999 -5 0  2.105263157889717 -5 0  2.526315789467435 -5 0  2.947368421045153 -5 0  3.368421052622872 -5 0  3.78947368420059 -5 0  4.210526315779479 -5 0  4.631578947359537 -5 0  5.052631578939595 -5 0  5.473684210519653 -5 0  5.89473684209971 -5 0  6.315789473679768 -5 0  6.736842105259826 -5 0  7.157894736839884 -5 0  7.578947368419942 -5 0  8.407407407405314 -5 0  8.814814814810628 -5 0  9.222222222215942 -5 0  9.629629629621256 -5 0  10.03703703702657 -5 0  10.44444444443188 -5 0  10.8518518518372 -5 0  11.25925925924251 -5 0  11.66666666664783 -5 0  12.07407407405314 -5 0  12.48148148145846 -5 0  12.88888888886377 -5 0  13.29629629626908 -5 0  13.7037037036744 -5 0  14.11111111107971 -5 0  14.51851851848502 -5 0  14.92592592589034 -5 0  15.33333333329565 -5 0  15.74074074070096 -5 0  16.14814814810754 -5 0  16.55555555551614 -5 0  16.96296296292474 -5 0  17.37037037033335 -5 0  17.77777777774195 -5 0  18.18518518515056 -5 0  18.59259259255916 -5 0  18.99999999996776 -5 0  19.40740740737636 -5 0  19.81481481478497 -5 0  20.22222222219357 -5 0  20.62962962960217 -5 0  21.03703703701077 -5 0  21.44444444441937 -5 0  21.85185185182797 -5 0  22.25925925923657 -5 0  22.66666666664518 -5 0  23.07407407405378 -5 0  23.48148148146238 -5 0  23.88888888887098 -5 0  24.29629629627958 -5 0  24.70370370368818 -5 0  25.11111111109678 -5 0  25.51851851850539 -5 0  25.92592592591399 -5 0  26.33333333332259 -5 0  26.74074074073119 -5 0  27.14814814813979 -5 0  27.55555555554839 -5 0  27.96296296295699 -5 0  28.3703703703656 -5 0  28.7777777777742 -5 0  29.1851851851828 -5 0  29.5925925925914 -5 0  30.41666666667852 -5 0  30.83333333335704 -5 0  31.25000000003556 -5 0  31.66666666671408 -5 0  32.08333333338936 -5 0  32.50000000005308 -5 0  32.9166666667168 -5 0  33.33333333338052 -5 0  33.75000000004424 -5 0  34.16666666670795 -5 0  34.58333333337167 -5 0  35.00000000003539 -5 0  35.41666666669911 -5 0  35.83333333336282 -5 0  36.25000000002654 -5 0  36.66666666669026 -5 0  37.08333333335398 -5 0  37.50000000001769 -5 0  37.91666666668141 -5 0  38.33333333334513 -5 0  38.75000000000885 -5 0  39.16666666667257 -5 0  39.58333333333628 -5 0  40 -4.583333333332821 0  40 -4.166666666665642 0  40 -3.74999999999855 0  40 -3.333333333333135 0  40 -2.916666666667806 0  40 -2.500000000002478 0  40 -2.083333333337148 0  40 -1.666666666671818 0  40 -1.250000000006488 0  40 -0.8333333333405228 0  40 -0.4166666666733416 0  40 -6.163070054299169e-12 0  40 0.4166666666610173 0  40 0.8333333333281976 0  40 1.249999999995378 0  40 1.666666666662558 0  40 2.083333333329739 0  40 2.499999999996919 0  40 2.916666666664099 0  40 3.33333333333128 0  40 3.74999999999846 0  40 4.166666666665641 0  40 4.583333333332821 0  39.58333333333628 5 0  39.16666666667256 5 0  38.75000000000885 5 0  38.33333333334513 5 0  37.91666666668141 5 0  37.50000000001769 5 0  37.08333333335398 5 0  36.66666666669025 5 0  36.25000000002654 5 0  35.83333333336282 5 0  35.41666666669911 5 0  35.00000000003539 5 0  34.58333333337167 5 0  34.16666666670795 5 0  33.75000000004424 5 0  33.33333333338052 5 0  32.9166666667168 5 0  32.50000000005308 5 0  32.08333333338936 5 0  31.66666666671408 5 0  31.25000000003556 5 0  30.83333333335704 5 0  30.41666666667852 5 0  29.59259259259259 5 0  29.18518518518519 5 0  28.77777777777778 5 0  28.37037037037037 5 0  27.96296296296296 5 0  27.55555555555556 5 0  27.14814814814815 5 0  26.74074074074074 5 0  26.33333333333333 5 0  25.92592592592593 5 0  25.51851851851852 5 0  25.11111111111111 5 0  24.7037037037037 5 0  24.2962962962963 5 0  23.88888888888889 5 0  23.48148148148148 5 0  23.07407407407408 5 0  22.66666666666667 5 0  22.25925925925926 5 0  21.85185185185185 5 0  21.44444444444445 5 0  21.03703703703704 5 0  20.62962962962963 5 0  20.22222222222222 5 0  19.81481481481482 5 0  19.40740740740741 5 0  19 5 0  18.5925925925926 5 0  18.18518518518519 5 0  17.77777777777778 5 0  17.37037037037037 5 0  16.96296296296296 5 0  16.55555555555556 5 0  16.14814814814815 5 0  15.74074074074074 5 0  15.33333333333333 5 0  14.92592592592593 5 0  14.51851851851852 5 0  14.11111111111111 5 0  13.70370370370371 5 0  13.2962962962963 5 0  12.88888888888889 5 0  12.48148148148148 5 0  12.07407407407408 5 0  11.66666666666667 5 0  11.25925925925926 5 0  10.85185185185185 5 0  10.44444444444445 5 0  10.03703703703704 5 0  9.629629629629633 5 0  9.222222222222221 5 0  8.814814814814817 5 0  8.407407407407408 5 0  7.5789473684193 5 0  7.157894736838599 5 0  6.73684210526082 5 0  6.315789473684795 5 0  5.894736842108769 5 0  5.473684210532742 5 0  5.052631578956715 5 0  4.631578947380689 5 0  4.210526315804662 5 0  3.789473684226299 5 0  3.368421052645599 5 0  2.947368421064898 5 0  2.526315789484198 5 0  2.105263157903499 5 0  1.6842105263228 5 0  1.2631578947421 5 0  0.8421052631613994 5 0  0.4210526315806993 5 0  0 4.545454545454545 0  0 4.09090909090909 0  0 3.636363636363634 0  0 3.18181818181818 0  0 2.727272727272726 0  0 2.272727272727271 0  0 1.818181818181817 0  0 1.363636363636363 0  0 0.9090909090909092 0  0 0.454545454545455 0  0 -0.4545454545450807 0  0 -0.9090909090895867 0  0 -1.363636363633713 0  0 -1.818181818177841 0  0 -2.272727272723127 0  0 -2.727272727269273 0  0 -3.181818181815419 0  0 -3.636363636361564 0  0 -4.090909090907709 0  0 -4.545454545453855 0  8 -4.499999999999999 0  8 -3.999999999999999 0  8 -3.499999999999999 0  8 -3 0  8.137254901963859 -2.5 0  8.274509803926303 -2.5 0  8.411764705886863 -2.5 0  8.549019607849138 -2.5 0  8.686274509809513 -2.5 0  8.82352941176989 -2.5 0  8.960784313730265 -2.5 0  9.098039215690642 -2.5 0  9.235294117651017 -2.5 0  9.372549019611395 -2.5 0  9.50980392157177 -2.5 0  9.647058823532147 -2.5 0  9.784313725492522 -2.5 0  9.921568627452897 -2.5 0  10.05882352941327 -2.5 0  10.19607843137365 -2.5 0  10.33333333333402 -2.5 0  10.4705882352944 -2.5 0  10.60784313725478 -2.5 0  10.74509803921515 -2.5 0  10.88235294117553 -2.5 0  11.0196078431359 -2.5 0  11.15686274509628 -2.5 0  11.29411764705665 -2.5 0  11.43137254901703 -2.5 0  11.56862745097915 -2.5 0  11.70588235294301 -2.5 0  11.84313725490686 -2.5 0  11.98039215687072 -2.5 0  12.11764705883209 -2.5 0  12.25490196079247 -2.5 0  12.39215686275285 -2.5 0  12.52941176471322 -2.5 0  12.6666666666736 -2.5 0  12.80392156863397 -2.5 0  12.94117647059435 -2.5 0  13.07843137255473 -2.5 0  13.2156862745151 -2.5 0  13.35294117647548 -2.5 0  13.49019607843586 -2.5 0  13.62745098039623 -2.5 0  13.76470588235661 -2.5 0  13.90196078431699 -2.5 0  14.03921568627736 -2.5 0  14.17647058823774 -2.5 0  14.31372549019812 -2.5 0  14.45098039215849 -2.5 0  14.58823529411887 -2.5 0  14.72549019607925 -2.5 0  14.86274509803962 -2.5 0  15.20270270270254 -2.5 0  15.40540540540509 -2.5 0  15.60810810810763 -2.5 0  15.81081081081017 -2.5 0  16.01351351351227 -2.5 0  16.21621621621265 -2.5 0  16.41891891891279 -2.5 0  16.62162162161294 -2.5 0  16.82432432431308 -2.5 0  17.02702702701322 -2.5 0  17.22972972971337 -2.5 0  17.43243243241351 -2.5 0  17.63513513511365 -2.5 0  17.83783783781379 -2.5 0  18.04054054051394 -2.5 0  18.24324324321408 -2.5 0  18.44594594591422 -2.5 0  18.64864864861436 -2.5 0  18.85135135131451 -2.5 0  19.05405405401465 -2.5 0  19.25675675671479 -2.5 0  19.45945945941494 -2.5 0  19.66216216211508 -2.5 0  19.86486486481522 -2.5 0  20.06756756751536 -2.5 0  20.27027027021551 -2.5 0  20.47297297291565 -2.5 0  20.6756756756158 -2.5 0  20.87837837831594 -2.5 0  21.08108108101608 -2.5 0  21.28378378371622 -2.5 0  21.48648648641637 -2.5 0  21.68918918911651 -2.5 0  21.89189189181666 -2.5 0  22.0945945945168 -2.5 0  22.29729729721694 -2.5 0  22.49999999991778 -2.5 0  22.70270270262203 -2.5 0  22.90540540532697 -2.5 0  23.10810810803191 -2.5 0  23.31081081073686 -2.5 0  23.5135135134418 -2.5 0  23.71621621614674 -2.5 0  23.91891891885169 -2.5 0  24.12162162155663 -2.5 0  24.32432432426158 -2.5 0  24.52702702696652 -2.5 0  24.72972972967146 -2.5 0  24.93243243237641 -2.5 0  25.13513513508135 -2.5 0  25.3378378377863 -2.5 0  25.54054054049124 -2.5 0  25.74324324319618 -2.5 0  25.94594594590112 -2.5 0  26.14864864860607 -2.5 0  26.35135135131101 -2.5 0  26.55405405401596 -2.5 0  26.7567567567209 -2.5 0  26.95945945942584 -2.5 0  27.16216216213079 -2.5 0  27.36486486483573 -2.5 0  27.56756756754068 -2.5 0  27.77027027024562 -2.5 0  27.97297297295056 -2.5 0  28.1756756756555 -2.5 0  28.37837837836045 -2.5 0  28.5810810810654 -2.5 0  28.78378378377034 -2.5 0  28.98648648647528 -2.5 0  29.18918918918023 -2.5 0  29.39189189188517 -2.5 0  29.59459459459011 -2.5 0  29.79729729729506 -2.5 0  30 -3.000000000000001 0  30 -3.500000000000001 0  30 -4.000000000000001 0  30 -4.5 0  8 4.499999999999999 0  8 3.999999999999999 0  8 3.499999999999999 0  8 3 0  8.137254901963859 2.5 0  8.274509803926303 2.5 0  8.411764705886863 2.5 0  8.549019607849138 2.5 0  8.686274509809513 2.5 0  8.82352941176989 2.5 0  8.960784313730265 2.5 0  9.098039215690642 2.5 0  9.235294117651017 2.5 0  9.372549019611395 2.5 0  9.50980392157177 2.5 0  9.647058823532147 2.5 0  9.784313725492522 2.5 0  9.921568627452897 2.5 0  10.05882352941327 2.5 0  10.19607843137365 2.5 0  10.33333333333402 2.5 0  10.4705882352944 2.5 0  10.60784313725478 2.5 0  10.74509803921515 2.5 0  10.88235294117553 2.5 0  11.0196078431359 2.5 0  11.15686274509628 2.5 0  11.29411764705665 2.5 0  11.43137254901703 2.5 0  11.56862745097915 2.5 0  11.70588235294301 2.5 0  11.84313725490686 2.5 0  11.98039215687072 2.5 0  12.11764705883209 2.5 0  12.25490196079247 2.5 0  1
[...]
<PointData  Vectors="f_17"> 
<DataArray  type="Float64"  Name="f_17"  NumberOfComponents="3" format="ascii">1.0000001360158368e+00 0.0000000000000000e+00 0.0000000000000000e+00  1.0505519316571512e+00 0.0000000000000000e+00 0.0000000000000000e+00  1.0015778286984331e+00 0.0000000000000000e+00 0.0000000000000000e+00  9.9686341444894200e-01 0.0000000000000000e+00 0.0000000000000000e+00  9.9697986333233546e-01 0.0000000000000000e+00 0.0000000000000000e+00  1.0015394123576313e+00 0.0000000000000000e+00 0.0000000000000000e+00  1.0499545031545645e+00 0.0000000000000000e+00 0.0000000000000000e+00  1.0000001360158368e+00 0.0000000000000000e+00 0.0000000000000000e+00  1.0221722398315278e+00 -6.1465437371196058e-02 0.0000000000000000e+00  1.1519394652010861e+00 5.6784063155883149e-02 0.0000000000000000e+00  1.0069003891560895e+00 5.5170782739375635e-03 0.0000000000000000e+00  1.0065331391482519e+00 -5.3942897146902315e-03 0.0000000000000000e+00  1.1523598269145494e+00 -5.2299399274030246e-02 0.0000000000000000e+00  1.0218225704005348e+00 6.1445998408752402e-02 0.0000000000000000e+00  0.0000000000000000e+00 0.0000000000000000e+00 0.0000000000000000e+00  0.0000000000000000e+00 0.0000000000000000e+00 0.0000000000000000e+00  1.0000001360158368e+00 0.0000000000000000e+00 0.0000000000000000e+00  9.9931525017357836e-01 0.0000000000000000e+00 0.0000000000000000e+00  9.9879412843382176e-01 0.0000000000000000e+00 0.0000000000000000e+00  1.0008411593246702e+00 0.0000000000000000e+00 0.0000000000000000e+00  1.0007037805556511e+00 0.0000000000000000e+00 0.0000000000000000e+00  1.0017051421435044e+00 0.0000000000000000e+00 0.0000000000000000e+00  1.0020842282203368e+00 0.0000000000000000e+00 0.0000000000000000e+00  1.0024532159769375e+00 0.0000000000000000e+00 0.0000000000000000e+00  1.0033709345257449e+00 0.0000000000000000e+00 0.0000000000000000e+00  1.0047267898828645e+00 0.0000000000000000e+00 0.0000000000000000e+00  1.0060344450207914e+00 0.0000000000000000e+00 0.0000000000000000e+00  1.0077562407575225e+00 0.0000000000000000e+00 0.0000000000000000e+00  1.0102916839564349e+00 0.0000000000000000e+00 0.0000000000000000e+00  1.0130535360319401e+00 0.0000000000000000e+00 0.0000000000000000e+00  1.0175487087695536e+00 0.0000000000000000e+00 0.0000000000000000e+00  1.0200108531764334e+00 0.0000000000000000e+00 0.0000000000000000e+00  1.0255604004326475e+00 0.0000000000000000e+00 0.0000000000000000e+00  1.0334966959457421e+00 0.0000000000000000e+00 0.0000000000000000e+00  1.0404726502665345e+00 0.0000000000000000e+00 0.0000000000000000e+00  1.0610715530670205e+00 0.0000000000000000e+00 0.0000000000000000e+00  1.0725696514338736e+00 0.0000000000000000e+00 0.0000000000000000e+00  1.0841523138641402e+00 0.0000000000000000e+00 0.0000000000000000e+00  1.0969441248083134e+00 0.0000000000000000e+00 0.0000000000000000e+00  1.1087017181835201e+00 0.0000000000000000e+00 0.0000000000000000e+00  1.1202803472420875e+00 0.0000000000000000e+00 0.0000000000000000e+00  1.1316077857006102e+00 0.0000000000000000e+00 0.0000000000000000e+00  1.1402276311684469e+00 0.0000000000000000e+00 0.0000000000000000e+00  1.1477633426476106e+00 0.0000000000000000e+00 0.0000000000000000e+00  1.1530144332108565e+00 0.0000000000000000e+00 0.0000000000000000e+00  1.1565308772431149e+00 0.0000000000000000e+00 0.0000000000000000e+00  1.1569639855644265e+00 0.0000000000000000e+00 0.0000000000000000e+00  1.1564951922550757e+00 0.0000000000000000e+00 0.0000000000000000e+00  1.1536746415968953e+00 0.0000000000000000e+00 0.0000000000000000e+00  1.1493498934509379e+00 0.0000000000000000e+00 0.0000000000000000e+00  1.1440737419812619e+00 0.0000000000000000e+00 0.0000000000000000e+00  1.1374637599821897e+00 0.0000000000000000e+00 0.0000000000000000e+00  1.1302544581847791e+00 0.0000000000000000e+00 0.0000000000000000e+00  1.1218963976748546e+00 0.0000000000000000e+00 0.0000000000000000e+00  1.1130669952807368e+00 0.0000000000000000e+00 0.0000000000000000e+00  1.1049990147198285e+00 0.0000000000000000e+00 0.0000000000000000e+00  1.0976436091645250e+00 0.0000000000000000e+00 0.0000000000000000e+00  1.0889608809171925e+00 0.0000000000000000e+00 0.0000000000000000e+00  1.0816809975951880e+00 0.0000000000000000e+00 0.0000000000000000e+00  1.0745366766778179e+00 0.0000000000000000e+00 0.0000000000000000e+00  1.0679216058650787e+00 0.0000000000000000e+00 0.0000000000000000e+00  1.0621375756642581e+00 0.0000000000000000e+00 0.0000000000000000e+00  1.0565785526923932e+00 0.0000000000000000e+00 0.0000000000000000e+00  1.0514754299457896e+00 0.0000000000000000e+00 0.0000000000000000e+00  1.0472149195958032e+00 0.0000000000000000e+00 0.0000000000000000e+00  1.0426521554504977e+00 0.0000000000000000e+00 0.0000000000000000e+00  1.0382533028196255e+00 0.0000000000000000e+00 0.0000000000000000e+00  1.0357650706108308e+00 0.0000000000000000e+00 0.0000000000000000e+00  1.0324599589795858e+00 0.0000000000000000e+00 0.0000000000000000e+00  1.0292552663173946e+00 0.0000000000000000e+00 0.0000000000000000e+00  1.0272818477095165e+00 0.0000000000000000e+00 0.0000000000000000e+00  1.0246358768769206e+00 0.0000000000000000e+00 0.0000000000000000e+00  1.0220177839195932e+00 0.0000000000000000e+00 0.0000000000000000e+00  1.0210131903754807e+00 0.0000000000000000e+00 0.0000000000000000e+00  1.0191666876221035e+00 0.0000000000000000e+00 0.0000000000000000e+00  1.0172963589232600e+00 0.0000000000000000e+00 0.0000000000000000e+00  1.0162728181297578e+00 0.0000000000000000e+00 0.0000000000000000e+00  1.0146070974486128e+00 0.0000000000000000e+00 0.0000000000000000e+00  1.0129974960120749e+00 0.0000000000000000e+00 0.0000000000000000e+00  1.0120909598490071e+00 0.0000000000000000e+00 0.0000000000000000e+00  1.0103484078427121e+00 0.0000000000000000e+00 0.0000000000000000e+00  1.0084248076669975e+00 0.0000000000000000e+00 0.0000000000000000e+00  1.0089559269421404e+00 0.0000000000000000e+00 0.0000000000000000e+00  1.0075713206662462e+00 0.0000000000000000e+00 0.0000000000000000e+00  1.0046947377161455e+00 0.0000000000000000e+00 0.0000000000000000e+00  1.0029450673704616e+00 0.0000000000000000e+00 0.0000000000000000e+00  1.0028900941121315e+00 0.0000000000000000e+00 0.0000000000000000e+00  1.0019795823748618e+00 0.0000000000000000e+00 0.0000000000000000e+00  1.0008952249555603e+00 0.0000000000000000e+00 0.0000000000000000e+00  9.9952043552130265e-01 0.0000000000000000e+00 0.0000000000000000e+00  9.9819540541641771e-01 0.0000000000000000e+00 0.0000000000000000e+00  9.9781022132163144e-01 0.0000000000000000e+00 0.0000000000000000e+00  9.9750192651625913e-01 0.0000000000000000e+00 0.0000000000000000e+00  9.9686436987387572e-01 0.0000000000000000e+00 0.0000000000000000e+00  9.9636249739786609e-01 0.0000000000000000e+00 0.0000000000000000e+00  9.9621739371693008e-01 0.0000000000000000e+00 0.0000000000000000e+00  9.9616103908802844e-01 0.0000000000000000e+00 0.0000000000000000e+00  9.9569717297972260e-01 0.0000000000000000e+00 0.0000000000000000e+00  9.9578293892079917e-01 0.0000000000000000e+00 0.0000000000000000e+00  9.9569160496151254e-01 0.0000000000000000e+00 0.0000000000000000e+00  9.9534844957567259e-01 0.0000000000000000e+00 0.0000000000000000e+00  9.9551094992382816e-01 0.0000000000000000e+00 0.0000000000000000e+00  9.9558092404168774e-01 0.0000000000000000e+00 0.0000000000000000e+00  9.9615651885677825e-01 0.0000000000000000e+00 0.0000000000000000e+00  9.9579356847197342e-01 0.0000000000000000e+00 0.0000000000000000e+00  9.9596624828838964e-01 0.0000000000000000e+00 0.0000000000000000e+00  9.9583728284452877e-01 0.0000000000000000e+00 0.0000000000000000e+00  9.9638186316659727e-01 0.0000000000000000e+00 0.0000000000000000e+00  9.9629521626847151e-01 0.0000000000000000e+00 0.0000000000000000e+00  9.9680115410011483e-01 0.0000000000000000e+00 0.0000000000000000e+00  9.9643310973561261e-01 0.0000000000000000e+00 0.0000000000000000e+00  9.9738657825452282e-01 -5.7430210028929277e-05 0.0000000000000000e+00  9.9832688615547693e-01 -2.1421945489603439e-04 0.0000000000000000e+00  9.9992051947589100e-01 -2.7405431632020178e-04 0.0000000000000000e+00  1.0002915708900333e+00 -2.3039113887077199e-04 0.0000000000000000e+00  1.0012530246747420e+00 -2.7348257511207539e-04 0.0000000000000000e+00  1.0011131409808878e+00 -2.0657093043900755e-04 0.0000000000000000e+00  1.0009252272208347e+00 -1.4552535239604136e-04 0.0000000000000000e+00  1.0011814216874013e+00 -1.0044804911457986e-04 0.0000000000000000e+00  1.0009214696157134e+00 -9.6358948839542514e-05 0.0000000000000000e+00  1.0009501418018567e+00 7.3721244641295226e-05 0.0000000000000000e+00  1.0021709610189087e+00 -5.2763092251823082e-04 0.0000000000000000e+00  1.0024236716632777e+00 -3.5095130891813674e-04 0.0000000000000000e+00  1.0010519660637887e+00 -5.3188559058162934e-04 0.0000000000000000e+00  9.9998012593303742e-01 -4.0180180352574748e-04 0.0000000000000000e+00  1.0008678212462518e+00 1.7839845717763277e-04 0.0000000000000000e+00  1.0017152442235047e+00 5.1161836949996104e-04 0.0000000000000000e+00  1.0007663665591617e+00 -2.8336820235130582e-06 0.0000000000000000e+00  1.0002253210024648e+00 1.0740260520128117e-04 0.0000000000000000e+00  9.9936594376573284e-01 2.4327937144778976e-04 0.0000000000000000e+00  9.9939564772420253e-01 2.2925712512504026e-04 0.0000000000000000e+00  9.9858718926736623e-01 2.3177739226239137e-04 0.0000000000000000e+00  9.9839425907068469e-01 1.6248768237598447e-04 0.0000000000000000e+00  9.9762228766411654e-01 2.6079087655922233e-05 0.0000000000000000e+00  9.9671114875171363e-01 0.0000000000000000e+00 0.0000000000000000e+00  9.9655740425604056e-01 0.0000000000000000e+00 0.0000000000000000e+00  9.9639142004177950e-01 0.0000000000000000e+00 0.0000000000000000e+00  9.9654260760209978e-01 0.0000000000000000e+00 0.0000000000000000e+00  9.9607034619649304e-01 0.0000000000000000e+00 0.0000000000000000e+00  9.9609931750755898e-01 0.0000000000000000e+00 0.0000000000000000e+00  9.9632889506736055e-01 0.0000000000000000e+00 0.0000000000000000e+00  9.9667030704704473e-01 0.0000000000000000e+00 0.0000000000000000e+00  9.9634203128489929e-01 0.0000000000000000e+00 0.0000000000000000e+00  9.9632907245430424e-01 0.0000000000000000e+00 0.0000000000000000e+00  9.9620099749801660e-01 0.0000000000000000e+00 0.0000000000000000e+00  9.9597793696405379e-01 0.0000000000000000e+00 0.0000000000000000e+00  9.9586563072549128e-01 0.0000000000000000e+00 0.0000000000000000e+00  9.9650442126160910e-01 0.0000000000000000e+00 0.0000000000000000e+00  9.9643570419882621e-01 0.0000000000000000e+00 0.0000000000000000e+00  9.9737787334214456e-01 0.0000000000000000e+00 0.0000000000000000e+00  9.9710751118199048e-01 0.0000000000000000e+00 0.0000000000000000e+00  9.9745076675573130e-01 0.0000000000000000e+00 0.0000000000000000e+00  9.9761032308792819e-01 0.0000000000000000e+00 0.0000000000000000e+00  9.9844952694673628e-01 0.0000000000000000e+00 0.0000000000000000e+00  9.9913929466158369e-01 0.0000000000000000e+00 0.0000000000000000e+00  9.9955553591984136e-01 0.0000000000000000e+00 0.0000000000000000e+00  1.0006161246509631e+00 0.0000000000000000e+00 0.0000000000000000e+00  1.0018377186699938e+00 0.0000000000000000e+00 0.0000000000000000e+00  1.0029357526239533e+00 0.0000000000000000e+00 0.0000000000000000e+00  1.0030304526030502e+00 0.0000000000000000e+00 0.0000000000000000e+00  1.0047184389110302e+00 0.0000000000000000e+00 0.0000000000000000e+00  1.0072599213996440e+00 0.0000000000000000e+00 0.0000000000000000e+00  1.0086905721471322e+00 0.0000000000000000e+00 0.0000000000000000e+00  1.0083153537383556e+00 0.0000000000000000e+00 0.0000000000000000e+00  1.0101321735024780e+00 0.0000000000000000e+00 0.0000000000000000e+00  1.0118600609434771e+00 0.0000000000000000e+00 0.0000000000000000e+00  1.0127863697873141e+00 0.0000000000000000e+00 0.0000000000000000e+00  1.0143492728009389e+00 0.0000000000000000e+00 0.0000000000000000e+00  1.0159710260459833e+00 0.0000000000000000e+00 0.0000000000000000e+00  1.0169585002555412e+00 0.0000000000000000e+00 0.0000000000000000e+00  1.0188021422741849e+00 0.0000000000000000e+00 0.0000000000000000e+00  1.0206384025914714e+00 0.0000000000000000e+00 0.0000000000000000e+00  1.0217142967448192e+00 0.0000000000000000e+00 0.0000000000000000e+00  1.0241362326285668e+00 0.0000000000000000e+00 0.0000000000000000e+00  1.0266599902421332e+00 0.0000000000000000e+00 0.0000000000000000e+00  1.0285102757458238e+00 0.0000000000000000e+00 0.0000000000000000e+00  1.0315463091553627e+00 0.0000000000000000e+00 0.0000000000000000e+00  1.0347130914453420e+00 0.0000000000000000e+00 0.0000000000000000e+00  1.0370726522317948e+00 0.0000000000000000e+00 0.0000000000000000e+00  1.0413435399827420e+00 0.0000000000000000e+00 0.0000000000000000e+00  1.0458272489137430e+00 0.0000000000000000e+00 0.0000000000000000e+00  1.0500660394773373e+00 0.0000000000000000e+00 0.0000000000000000e+00  1.0552528728196415e+00 0.0000000000000000e+00 0.0000000000000000e+00  1.0609070369551015e+00 0.0000000000000000e+00 0.0000000000000000e+00  1.0669216190852675e+00 0.0000000000000000e+00 0.0000000000000000e+00  1.0737141784965221e+00 0.0000000000000000e+00 0.0000000000000000e+00  1.0811854908355274e+00 0.0000000000000000e+00 0.0000000000000000e+00  1.0886477776230470e+00 0.0000000000000000e+00 0.0000000000000000e+00  1.0974144294244461e+00 0.0000000000000000e+00 0.0000000000000000e+00  1.1048805582695296e+00 0.0000000000000000e+00 0.0000000000000000e+00  1.1130385715612989e+00 0.0000000000000000e+00 0.0000000000000000e+00  1.1216185049172849e+00 0.0000000000000000e+00 0.0000000000000000e+00  1.1298556136657163e+00 0.0000000000000000e+00 0.0000000000000000e+00  1.1367619733592436e+00 0.0000000000000000e+00 0.0000000000000000e+00  1.1425821108449230e+00 0.0000000000000000e+00 0.0000000000000000e+00  1.1476319076719610e+00 0.0000000000000000e+00 0.0000000000000000e+00  1.1522549209949733e+00 0.0000000000000000e+00 0.0000000000000000e+00  1.1548607788116310e+00 0.0000000000000000e+00 0.0000000000000000e+00  1.1552610249438646e+00 0.0000000000000000e+00 0.0000000000000000e+00  1.1553033009830149e+00 0.0000000000000000e+00 0.0000000000000000e+00  1.1516806045268704e+00 0.0000000000000000e+00 0.0000000000000000e+00  1.1469158916017099e+00 0.0000000000000000e+00 0.0000000000000000e+00  1.1397648090757151e+00 0.0000000000000000e+00 0.0000000000000000e+00  1.1303235850445097e+00 0.0000000000000000e+00 0.0000000000000000e+00  1.1195366316959967e+00 0.0000000000000000e+00 0.0000000000000000e+00  1.1079917728527982e+00 0.0000000000000000e+00 0.0000000000000000e+00  1.0960403476941605e+00 0.0000000000000000e+00 0.0000000000000000e+00  1.0831476348309690e+00 0.0000000000000000e+00 0.0000000000000000e+00  1.0718039045459491e+00 0.0000000000000000e+00 0.0000000000000000e+00  1.0603809159614024e+00 0.0000000000000000e+00 0.0000000000000000e+00  1.0401300952998762e+00 0.0000000000000000e+00 0.0000000000000000e+00  1.0318264346839925e+00 0.0000000000000000e+00 0.0000000000000000e+00  1.0253732620214033e+00 0.0000000000000000e+00 0.0000000000000000e+00  1.0195899915163076e+00 0.0000000000000000e+00 0.0000000000000000e+00  1.0150203965288704e+00 0.0000000000000000e+00 0.0000000000000000e+00  1.0114131878947721e+00 0.0000000000000000e+00 0.0000000000000000e+00  1.0086384963848842e+00 0.0000000000000000e+00 0.0000000000000000e+00  1.0060747246132127e+00 0.0000000000000000e+00 0.0000000000000000e+00  1.0042845567361240e+00 0.0000000000000000e+00 0.0000000000000000e+00  1.0030435512205507e+00 0.0000000000000000e+00 0.0000000000000000e+00  1.0016866148034802e+00 0.0000000000000000e+00 0.0000000000000000e+00  1.0014304331603763e+00 0.0000000000000000e+00 0.0000000000000000e+00  1.0003137775107733e+00 0.0000000000000000e+00 0.0000000000000000e+00  1.0002515253319866e+00 0.0000000000000000e+00 0.0000000000000000e+00  9.9982160021202926e-01 0.0000000000000000e+00 0.0000000000000000e+00  1.0005075436556610e+00 0.0000000000000000e+00 0.0000000000000000e+00  1.0002555017992962e+00 0.0000000000000000e+00 0.0000000000000000e+00  9.9979526028681154e-01 0.0000000000000000e+00 0.0000000000000000e+00  1.0000001360158368e+00 0.0000000000000000e+00 0.0000000000000000e+00  1.0000001360158368e+00 0.0000000000000000e+00 0.0000000000000000e+00  1.0000001360158368e+00 0.0000000000000000e+00 0.0000000000000000e+00  1.0000001360158368e+00 0.0000000000000000e+00 0.0000000000000000e+00  1.0000001360158368e+00 0.0000000000000000e+00 0.0000000000000000e+00  1.0000001360158368e+00 0.0000000000000000e+00 0.0000000000000000e+00  1.0000001360158368e+00 0.0000000000000000e+00 0.0000000000000000e+00  1.0000001360158368e+00 0.0000000000000000e+00 0.0000000000000000e+00  1.0000001360158368e+00 0.0000000000000000e+00 0.0000000000000000e+00  1.0000001360158368e+00 0.0000000000000000e+00 0.0000000000000000e+00  1.0000001360158368e+00 0.0000000000000000e+00 0.0000000000000000e+00  1.0000001360158368e+00 0.0000000000000000e+00 0.0000000000000000e+00  1.0000001360158368e+00 0.0000000000000000e+00 0.0000000000000000e+00  1.0000001360158368e+00 0.0000000000000000e+00 0.0000000000000000e+00  1.0000001360158368e+00 0.0000000000000000e+00 0.0000000000000000e+00  1.0000001360158368e+00 0.0000000000000000e+00 0.0000000000000000e+00  1.0000001360158368e+00 0.0000000000000000e+00 0.0000000000000000e+00  1.0000001360158368e+00 0.0000000000000000e+00 0.0000000000000000e+00  1.0000001360158368e+00 0.0000000000000000e+00 0.0000000000000000e+00  1.0000001360158368e+00 0.0000000000000000e+00 0.0000000000000000e+00  1.0496411802936179e+00 -1.2170271243244695e-02 0.0000000000000000e+00  1.0455798634019313e+00 -2.4325361854544130e-02 0.0000000000000000e+00  1.0415726887145398e+00 -3.6749718392159195e-02 0.0000000000000000e+00  1.0335085933930646e+00 -4.9357411355032597e-02 0.0000000000000000e+00  1.0249477442271264e+00 -6.6122527961900962e-02 0.0000000000000000e+00  1.0296036771225372e+00 -7.0443860607940514e-02 0.0000000000000000e+00  1.0338406089828474e+00 -7.4915978407895600e-02 0.0000000000000000e+00  1.0391578494230911e+00 -7.9164511260587725e-02 0.0000000000000000e+00  1.0447746363061003e+00 -8.3346557329922771e-02 0.0000000000000000e+00  1.0510614262969691e+00 -8.7216880691608295e-02 0.0000000000000000e+00  1.0579772960765541e+00 -9.0821530192611966e-02 0.0000000000000000e+00  1.0654197039210980e+00 -9.3858569949053880e-02 0.0000000000000000e+00  1.0734186285260470e+00 -9.6477647782938200e-02 0.0000000000000000e+00  1.0816503627544938e+00 -9.8321698905174879e-02 0.0000000000000000e+00  1.0902918764092611e+00 -9.9625477963348030e-02 0.0000000000000000e+00  1.0991127688553832e+00 -1.0023965793381324e-01 0.0000000000000000e+00  1.1081055172328518e+00 -9.9924536966604832e-02 0.0000000000000000e+00  1.1168803475512012e+00 -9.8807495332682738e-02 0.0000000000000000e+00  1.1255428996653520e+00 -9.7052619846448349e-02 0.0000000000000000e+00  1.1339373626806413e+00 -9.4585794307747564e-02 0.0000000000000000e+00  1.1418585368075465e+00 -9.1424164925750631e-02 0.0000000000000000e+00  1.1493722035415979e+00 -8.7738189184024110e-02 0.0000000000000000e+00  1.1563232605331701e+00 -8.3601605359993864e-02 0.0000000000000000e+00  1.1627835034705354e+00 -7.8961329092461549e-02 0.0000000000000000e+00  1.1686861337392893e+00 -7.4176546888180192e-02 0.0000000000000000e+00  1.1740596510902499e+00 -6.9054690355485546e-02 0.0000000000000000e+00  1.1787795549791598e+00 -6.3704299797645164e-02 0.0000000000000000e+00  1.1831016382796766e+00 -5.8297405765296628e-02 0.0000000000000000e+00  1.1867964238183855e+00 -5.2843467622966565e-02 0.0000000000000000e+00  1.1900380179914611e+00 -4.7339687188468857e-02 0.0000000000000000e+00  1.1927679821715180e+00 -4.1832349669968329e-02 0.0000000000000000e+00  1.1950264611717905e+00 -3.6407639940797008e-02 0.0000000000000000e+00  1.1968835551549606e+00 -3.0947545131858756e-02 0.0000000000000000e+00  1.1982989694558248e+00 -2.5513473971796888e-02 0.0000000000000000e+00  1.1993313318780809e+00 -2.0176761083925639e-02 0.0000000000000000e+00  1.1999801754360373e+00 -1.4919