<?xml version="1.0"?>
<VTKFile type="UnstructuredGrid"  version="0.1"  >
<UnstructuredGrid>
<Piece  NumberOfPoints="10199" NumberOfCells="20110">
<Points>
<DataArray  type="Float64"  NumberOfComponents="3"  format="ascii">0 -5 0  8 -5 0  30 -5 0  40 -5 0  40 5 0  30 5 0  8 5 0  0 5 0  8 -2.5 0  15 -2.5 0  30 -2.5 0  30 2.5 0  15 2.5 0  8 2.5 0  10 0.5 0  10 -0.5 0  0 0 0  0.4210526315780956 -5 0  0.8421052631563433 -5 0  1.263157894734281 -5 0  1.684210526311999 -5 0  2.105263157889717 -5 0  2.526315789467435 -5 0  2.947368421045153 -5 0  3.368421052622872 -5 0  3.78947368420059 -5 0  4.210526315779479 -5 0  4.631578947359537 -5 0  5.052631578939595 -5 0  5.473684210519653 -5 0  5.89473684209971 -5 0  6.315789473679768 -5 0  6.736842105259826 -5 0  7.157894736839884 -5 0  7.578947368419942 -5 0  8.407407407405314 -5 0  8.814814814810628 -5 0  9.222222222215942 -5 0  9.629629629621256 -5 0  10.03703703702657 -5 0  10.44444444443188 -5 0  10.8518518518372 -5 0  11.25925925924251 -5 0  11.66666666664783 -5 0  12.07407407405314 -5 0  12.48148148145846 -5 0  12.88888888886377 -5 0  13.29629629626908 -5 0  13.7037037036744 -5 0  14.11111111107971 -5 0  14.51851851848502 -5 0  14.92592592589034 -5 0  15.33333333329565 -5 0  15.74074074070096 -5 0  16.14814814810754 -5 0  16.55555555551614 -5 0  16.96296296292474 -5 0  17.37037037033335 -5 0  17.77777777774195 -5 0  18.18518518515056 -5 0  18.59259259255916 -5 0  18.99999999996776 -5 0  19.40740740737636 -5 0  19.81481481478497 -5 0  20.22222222219357 -5 0  20.62962962960217 -5 0  21.03703703701077 -5 0  21.44444444441937 -5 0  21.85185185182797 -5 0  22.25925925923657 -5 0  22.66666666664518 -5 0  23.07407407405378 -5 0  23.48148148146238 -5 0  23.88888888887098 -5 0  24.29629629627958 -5 0  24.70370370368818 -5 0  25.11111111109678 -5 0  25.51851851850539 -5 0  25.92592592591399 -5 0  26.33333333332259 -5 0  26.74074074073119 -5 0  27.14814814813979 -5 0  27.55555555554839 -5 0  27.96296296295699 -5 0  28.3703703703656 -5 0  28.7777777777742 -5 0  29.1851851851828 -5 0  29.5925925925914 -5 0  30.41666666667852 -5 0  30.83333333335704 -5 0  31.25000000003556 -5 0  31.66666666671408 -5 0  32.08333333338936 -5 0  32.50000000005308 -5 0  32.9166666667168 -5 0  33.33333333338052 -5 0  33.75000000004424 -5 0  34.16666666670795 -5 0  34.58333333337167 -5 0  35.00000000003539 -5 0  35.41666666669911 -5 0  35.83333333336282 -5 0  36.25000000002654 -5 0  36.66666666669026 -5 0  37.08333333335398 -5 0  37.50000000001769 -5 0  37.91666666668141 -5 0  38.33333333334513 -5 0  38.75000000000885 -5 0  39.16666666667257 -5 0  39.58333333333628 -5 0  40 -4.583333333332821 0  40 -4.166666666665642 0  40 -3.74999999999855 0  40 -3.333333333333135 0  40 -2.916666666667806 0  40 -2.500000000002478 0  40 -2.083333333337148 0  40 -1.666666666671818 0  40 -1.250000000006488 0  40 -0.8333333333405228 0  40 -0.4166666666733416 0  40 -6.163070054299169e-12 0  40 0.4166666666610173 0  40 0.8333333333281976 0  40 1.249999999995378 0  40 1.666666666662558 0  40 2.083333333329739 0  40 2.499999999996919 0  40 2.916666666664099 0  40 3.33333333333128 0  40 3.74999999999846 0  40 4.166666666665641 0  40 4.583333333332821 0  39.58333333333628 5 0  39.16666666667256 5 0  38.75000000000885 5 0  38.33333333334513 5 0  37.91666666668141 5 0  37.50000000001769 5 0  37.08333333335398 5 0  36.66666666669025 5 0  36.25000000002654 5 0  35.83333333336282 5 0  35.41666666669911 5 0  35.00000000003539 5 0  34.58333333337167 5 0  34.16666666670795 5 0  33.75000000004424 5 0  33.33333333338052 5 0  32.9166666667168 5 0  32.50000000005308 5 0  32.08333333338936 5 0  31.66666666671408 5 0  31.25000000003556 5 0  30.83333333335704 5 0  30.41666666667852 5 0  29.59259259259259 5 0  29.18518518518519 5 0  28.77777777777778 5 0  28.37037037037037 5 0  27.96296296296296 5 0  27.55555555555556 5 0  27.14814814814815 5 0  26.74074074074074 5 0  26.33333333333333 5 0  25.92592592592593 5 0  25.51851851851852 5 0  25.11111111111111 5 0  24.7037037037037 5 0  24.2962962962963 5 0  23.88888888888889 5 0  23.48148148148148 5 0  23.07407407407408 5 0  22.66666666666667 5 0  22.25925925925926 5 0  21.85185185185185 5 0  21.44444444444445 5 0  21.03703703703704 5 0  20.62962962962963 5 0  20.22222222222222 5 0  19.81481481481482 5 0  19.40740740740741 5 0  19 5 0  18.5925925925926 5 0  18.18518518518519 5 0  17.77777777777778 5 0  17.37037037037037 5 0  16.96296296296296 5 0  16.55555555555556 5 0  16.14814814814815 5 0  15.74074074074074 5 0  15.33333333333333 5 0  14.92592592592593 5 0  14.51851851851852 5 0  14.11111111111111 5 0  13.70370370370371 5 0  13.2962962962963 5 0  12.88888888888889 5 0  12.48148148148148 5 0  12.07407407407408 5 0  11.66666666666667 5 0  11.25925925925926 5 0  10.85185185185185 5 0  10.44444444444445 5 0  10.03703703703704 5 0  9.629629629629633 5 0  9.222222222222221 5 0  8.814814814814817 5 0  8.407407407407408 5 0  7.5789473684193 5 0  7.157894736838599 5 0  6.73684210526082 5 0  6.315789473684795 5 0  5.894736842108769 5 0  5.473684210532742 5 0  5.052631578956715 5 0  4.631578947380689 5 0  4.210526315804662 5 0  3.789473684226299 5 0  3.368421052645599 5 0  2.947368421064898 5 0  2.526315789484198 5 0  2.105263157903499 5 0  1.6842105263228 5 0  1.2631578947421 5 0  0.8421052631613994 5 0  0.4210526315806993 5 0  0 4.545454545454545 0  0 4.09090909090909 0  0 3.636363636363634 0  0 3.18181818181818 0  0 2.727272727272726 0  0 2.272727272727271 0  0 1.818181818181817 0  0 1.363636363636363 0  0 0.9090909090909092 0  0 0.454545454545455 0  0 -0.4545454545450807 0  0 -0.9090909090895867 0  0 -1.363636363633713 0  0 -1.818181818177841 0  0 -2.272727272723127 0  0 -2.727272727269273 0  0 -3.181818181815419 0  0 -3.636363636361564 0  0 -4.090909090907709 0  0 -4.545454545453855 0  8 -4.499999999999999 0  8 -3.999999999999999 0  8 -3.499999999999999 0  8 -3 0  8.137254901963859 -2.5 0  8.274509803926303 -2.5 0  8.411764705886863 -2.5 0  8.549019607849138 -2.5 0  8.686274509809513 -2.5 0  8.82352941176989 -2.5 0  8.960784313730265 -2.5 0  9.098039215690642 -2.5 0  9.235294117651017 -2.5 0  9.372549019611395 -2.5 0  9.50980392157177 -2.5 0  9.647058823532147 -2.5 0  9.784313725492522 -2.5 0  9.921568627452897 -2.5 0  10.05882352941327 -2.5 0  10.19607843137365 -2.5 0  10.33333333333402 -2.5 0  10.4705882352944 -2.5 0  10.60784313725478 -2.5 0  10.74509803921515 -2.5 0  10.88235294117553 -2.5 0  11.0196078431359 -2.5 0  11.15686274509628 -2.5 0  11.29411764705665 -2.5 0  11.43137254901703 -2.5 0  11.56862745097915 -2.5 0  11.70588235294301 -2.5 0  11.84313725490686 -2.5 0  11.98039215687072 -2.5 0  12.11764705883209 -2.5 0  12.25490196079247 -2.5 0  12.39215686275285 -2.5 0  12.52941176471322 -2.5 0  12.6666666666736 -2.5 0  12.80392156863397 -2.5 0  12.94117647059435 -2.5 0  13.07843137255473 -2.5 0  13.2156862745151 -2.5 0  13.35294117647548 -2.5 0  13.49019607843586 -2.5 0  13.62745098039623 -2.5 0  13.76470588235661 -2.5 0  13.90196078431699 -2.5 0  14.03921568627736 -2.5 0  14.17647058823774 -2.5 0  14.31372549019812 -2.5 0  14.45098039215849 -2.5 0  14.58823529411887 -2.5 0  14.72549019607925 -2.5 0  14.86274509803962 -2.5 0  15.20270270270254 -2.5 0  15.40540540540509 -2.5 0  15.60810810810763 -2.5 0  15.81081081081017 -2.5 0  16.01351351351227 -2.5 0  16.21621621621265 -2.5 0  16.41891891891279 -2.5 0  16.62162162161294 -2.5 0  16.82432432431308 -2.5 0  17.02702702701322 -2.5 0  17.22972972971337 -2.5 0  17.43243243241351 -2.5 0  17.63513513511365 -2.5 0  17.83783783781379 -2.5 0  18.04054054051394 -2.5 0  18.24324324321408 -2.5 0  18.44594594591422 -2.5 0  18.64864864861436 -2.5 0  18.85135135131451 -2.5 0  19.05405405401465 -2.5 0  19.25675675671479 -2.5 0  19.45945945941494 -2.5 0  19.66216216211508 -2.5 0  19.86486486481522 -2.5 0  20.06756756751536 -2.5 0  20.27027027021551 -2.5 0  20.47297297291565 -2.5 0  20.6756756756158 -2.5 0  20.87837837831594 -2.5 0  21.08108108101608 -2.5 0  21.28378378371622 -2.5 0  21.48648648641637 -2.5 0  21.68918918911651 -2.5 0  21.89189189181666 -2.5 0  22.0945945945168 -2.5 0  22.29729729721694 -2.5 0  22.49999999991778 -2.5 0  22.70270270262203 -2.5 0  22.90540540532697 -2.5 0  23.10810810803191 -2.5 0  23.31081081073686 -2.5 0  23.5135135134418 -2.5 0  23.71621621614674 -2.5 0  23.91891891885169 -2.5 0  24.12162162155663 -2.5 0  24.32432432426158 -2.5 0  24.52702702696652 -2.5 0  24.72972972967146 -2.5 0  24.93243243237641 -2.5 0  25.13513513508135 -2.5 0  25.3378378377863 -2.5 0  25.54054054049124 -2.5 0  25.74324324319618 -2.5 0  25.94594594590112 -2.5 0  26.14864864860607 -2.5 0  26.35135135131101 -2.5 0  26.55405405401596 -2.5 0  26.7567567567209 -2.5 0  26.95945945942584 -2.5 0  27.16216216213079 -2.5 0  27.36486486483573 -2.5 0  27.56756756754068 -2.5 0  27.77027027024562 -2.5 0  27.97297297295056 -2.5 0  28.1756756756555 -2.5 0  28.37837837836045 -2.5 0  28.5810810810654 -2.5 0  28.78378378377034 -2.5 0  28.98648648647528 -2.5 0  29.18918918918023 -2.5 0  29.39189189188517 -2.5 0  29.59459459459011 -2.5 0  29.79729729729506 -2.5 0  30 -3.000000000000001 0  30 -3.500000000000001 0  30 -4.000000000000001 0  30 -4.5 0  8 4.499999999999999 0  8 3.999999999999999 0  8 3.499999999999999 0  8 3 0  8.137254901963859 2.5 0  8.274509803926303 2.5 0  8.411764705886863 2.5 0  8.549019607849138 2.5 0  8.686274509809513 2.5 0  8.82352941176989 2.5 0  8.960784313730265 2.5 0  9.098039215690642 2.5 0  9.235294117651017 2.5 0  9.372549019611395 2.5 0  9.50980392157177 2.5 0  9.647058823532147 2.5 0  9.784313725492522 2.5 0  9.921568627452897 2.5 0  10.05882352941327 2.5 0  10.19607843137365 2.5 0  10.33333333333402 2.5 0  10.4705882352944 2.5 0  10.60784313725478 2.5 0  10.74509803921515 2.5 0  10.88235294117553 2.5 0  11.0196078431359 2.5 0  11.15686274509628 2.5 0  11.29411764705665 2.5 0  11.43137254901703 2.5 0  11.56862745097915 2.5 0  11.70588235294301 2.5 0  11.84313725490686 2.5 0  11.98039215687072 2.5 0  12.11764705883209 2.5 0  12.25490196079247 2.5 0  1
[...]
<PointData  Vectors="f_17"> 
<DataArray  type="Float64"  Name="f_17"  NumberOfComponents="3" format="ascii">1.0000001302565518e+00 0.0000000000000000e+00 0.0000000000000000e+00  1.0425513640574569e+00 0.0000000000000000e+00 0.0000000000000000e+00  1.0527478564508135e+00 0.0000000000000000e+00 0.0000000000000000e+00  1.0772528605249621e+00 0.0000000000000000e+00 0.0000000000000000e+00  1.0873250470275846e+00 0.0000000000000000e+00 0.0000000000000000e+00  1.0616989933812364e+00 0.0000000000000000e+00 0.0000000000000000e+00  1.0383069452014673e+00 0.0000000000000000e+00 0.0000000000000000e+00  1.0000001302565518e+00 0.0000000000000000e+00 0.0000000000000000e+00  1.0238588178935681e+00 -5.2522121689795073e-02 0.0000000000000000e+00  1.1066671764264386e+00 -4.9888180155511309e-02 0.0000000000000000e+00  1.0353981756503274e+00 -7.5512769346137487e-02 0.0000000000000000e+00  1.0867351550439373e+00 -6.9149136734811420e-02 0.0000000000000000e+00  1.0204754509839185e+00 -7.9937923319886833e-02 0.0000000000000000e+00  1.0189269301062729e+00 4.9064669917932242e-02 0.0000000000000000e+00  0.0000000000000000e+00 0.0000000000000000e+00 0.0000000000000000e+00  0.0000000000000000e+00 0.0000000000000000e+00 0.0000000000000000e+00  1.0000001302565518e+00 0.0000000000000000e+00 0.0000000000000000e+00  9.9928683318760647e-01 0.0000000000000000e+00 0.0000000000000000e+00  9.9872180803348420e-01 0.0000000000000000e+00 0.0000000000000000e+00  1.0007894107764199e+00 0.0000000000000000e+00 0.0000000000000000e+00  1.0006282085217197e+00 0.0000000000000000e+00 0.0000000000000000e+00  1.0016585525369956e+00 0.0000000000000000e+00 0.0000000000000000e+00  1.0020626250905966e+00 0.0000000000000000e+00 0.0000000000000000e+00  1.0024790955206482e+00 0.0000000000000000e+00 0.0000000000000000e+00  1.0034409089334453e+00 0.0000000000000000e+00 0.0000000000000000e+00  1.0047914365474386e+00 0.0000000000000000e+00 0.0000000000000000e+00  1.0060332621188557e+00 0.0000000000000000e+00 0.0000000000000000e+00  1.0075896044419352e+00 0.0000000000000000e+00 0.0000000000000000e+00  1.0098848676785139e+00 0.0000000000000000e+00 0.0000000000000000e+00  1.0122607243751245e+00 0.0000000000000000e+00 0.0000000000000000e+00  1.0161830867030905e+00 0.0000000000000000e+00 0.0000000000000000e+00  1.0178950265679931e+00 0.0000000000000000e+00 0.0000000000000000e+00  1.0224308180864927e+00 0.0000000000000000e+00 0.0000000000000000e+00  1.0291706915707659e+00 0.0000000000000000e+00 0.0000000000000000e+00  1.0345950145288103e+00 0.0000000000000000e+00 0.0000000000000000e+00  1.0505165596212096e+00 0.0000000000000000e+00 0.0000000000000000e+00  1.0588260653355517e+00 0.0000000000000000e+00 0.0000000000000000e+00  1.0663975747524970e+00 0.0000000000000000e+00 0.0000000000000000e+00  1.0741460007935169e+00 0.0000000000000000e+00 0.0000000000000000e+00  1.0799768120261508e+00 0.0000000000000000e+00 0.0000000000000000e+00  1.0845540771541762e+00 0.0000000000000000e+00 0.0000000000000000e+00  1.0880925316206886e+00 0.0000000000000000e+00 0.0000000000000000e+00  1.0884868629943836e+00 0.0000000000000000e+00 0.0000000000000000e+00  1.0876343897450660e+00 0.0000000000000000e+00 0.0000000000000000e+00  1.0851541915702980e+00 0.0000000000000000e+00 0.0000000000000000e+00  1.0822610176214307e+00 0.0000000000000000e+00 0.0000000000000000e+00  1.0782908994927116e+00 0.0000000000000000e+00 0.0000000000000000e+00  1.0759265948104475e+00 0.0000000000000000e+00 0.0000000000000000e+00  1.0743659232193061e+00 0.0000000000000000e+00 0.0000000000000000e+00  1.0736141909135286e+00 0.0000000000000000e+00 0.0000000000000000e+00  1.0738969673161469e+00 0.0000000000000000e+00 0.0000000000000000e+00  1.0741000553215696e+00 0.0000000000000000e+00 0.0000000000000000e+00  1.0736264098614003e+00 0.0000000000000000e+00 0.0000000000000000e+00  1.0714087538842236e+00 0.0000000000000000e+00 0.0000000000000000e+00  1.0671217804247195e+00 0.0000000000000000e+00 0.0000000000000000e+00  1.0622880301080648e+00 0.0000000000000000e+00 0.0000000000000000e+00  1.0567402731074655e+00 0.0000000000000000e+00 0.0000000000000000e+00  1.0496763192959366e+00 0.0000000000000000e+00 0.0000000000000000e+00  1.0442690177493517e+00 0.0000000000000000e+00 0.0000000000000000e+00  1.0403007378572620e+00 0.0000000000000000e+00 0.0000000000000000e+00  1.0385986784191672e+00 0.0000000000000000e+00 0.0000000000000000e+00  1.0398860583468281e+00 0.0000000000000000e+00 0.0000000000000000e+00  1.0431109893028174e+00 0.0000000000000000e+00 0.0000000000000000e+00  1.0479841821186950e+00 0.0000000000000000e+00 0.0000000000000000e+00  1.0539311278745369e+00 0.0000000000000000e+00 0.0000000000000000e+00  1.0583770868930171e+00 0.0000000000000000e+00 0.0000000000000000e+00  1.0610636112541805e+00 0.0000000000000000e+00 0.0000000000000000e+00  1.0628662375640900e+00 0.0000000000000000e+00 0.0000000000000000e+00  1.0611827242351370e+00 0.0000000000000000e+00 0.0000000000000000e+00  1.0573733499755551e+00 0.0000000000000000e+00 0.0000000000000000e+00  1.0534210657091461e+00 0.0000000000000000e+00 0.0000000000000000e+00  1.0486989368810964e+00 0.0000000000000000e+00 0.0000000000000000e+00  1.0448595559103904e+00 0.0000000000000000e+00 0.0000000000000000e+00  1.0443670154388272e+00 0.0000000000000000e+00 0.0000000000000000e+00  1.0449987646471279e+00 0.0000000000000000e+00 0.0000000000000000e+00  1.0475734420884804e+00 0.0000000000000000e+00 0.0000000000000000e+00  1.0524092432810515e+00 0.0000000000000000e+00 0.0000000000000000e+00  1.0570423785661063e+00 0.0000000000000000e+00 0.0000000000000000e+00  1.0610914250321080e+00 0.0000000000000000e+00 0.0000000000000000e+00  1.0643558758663330e+00 0.0000000000000000e+00 0.0000000000000000e+00  1.0646769778141523e+00 0.0000000000000000e+00 0.0000000000000000e+00  1.0625449085943206e+00 0.0000000000000000e+00 0.0000000000000000e+00  1.0612100674908549e+00 0.0000000000000000e+00 0.0000000000000000e+00  1.0571245216878964e+00 0.0000000000000000e+00 0.0000000000000000e+00  1.0515366013415883e+00 0.0000000000000000e+00 0.0000000000000000e+00  1.0482774627325067e+00 0.0000000000000000e+00 0.0000000000000000e+00  1.0483583161362493e+00 0.0000000000000000e+00 0.0000000000000000e+00  1.0495229672420991e+00 0.0000000000000000e+00 0.0000000000000000e+00  1.0568323278378007e+00 0.0000000000000000e+00 0.0000000000000000e+00  1.0602175739048347e+00 0.0000000000000000e+00 0.0000000000000000e+00  1.0628216553101977e+00 0.0000000000000000e+00 0.0000000000000000e+00  1.0648225265432532e+00 0.0000000000000000e+00 0.0000000000000000e+00  1.0647234331936903e+00 0.0000000000000000e+00 0.0000000000000000e+00  1.0625196817978375e+00 0.0000000000000000e+00 0.0000000000000000e+00  1.0589628683713288e+00 0.0000000000000000e+00 0.0000000000000000e+00  1.0556012877799588e+00 0.0000000000000000e+00 0.0000000000000000e+00  1.0528762589416092e+00 0.0000000000000000e+00 0.0000000000000000e+00  1.0513615432105168e+00 0.0000000000000000e+00 0.0000000000000000e+00  1.0522584274948108e+00 0.0000000000000000e+00 0.0000000000000000e+00  1.0550076490295155e+00 0.0000000000000000e+00 0.0000000000000000e+00  1.0587335017751558e+00 0.0000000000000000e+00 0.0000000000000000e+00  1.0634883963363382e+00 0.0000000000000000e+00 0.0000000000000000e+00  1.0676396297454434e+00 0.0000000000000000e+00 0.0000000000000000e+00  1.0710773004352738e+00 0.0000000000000000e+00 0.0000000000000000e+00  1.0718096871273353e+00 0.0000000000000000e+00 0.0000000000000000e+00  1.0715423683340728e+00 0.0000000000000000e+00 0.0000000000000000e+00  1.0698938565314402e+00 0.0000000000000000e+00 0.0000000000000000e+00  1.0687302646536914e+00 0.0000000000000000e+00 0.0000000000000000e+00  1.0676676016968227e+00 0.0000000000000000e+00 0.0000000000000000e+00  1.0689607354933011e+00 0.0000000000000000e+00 0.0000000000000000e+00  1.0715597482649770e+00 0.0000000000000000e+00 0.0000000000000000e+00  1.0769415901812214e+00 -6.6010106511614590e-03 0.0000000000000000e+00  1.0748979460103463e+00 -1.4145340759820622e-02 0.0000000000000000e+00  1.0702932394812901e+00 -2.3405304391168082e-02 0.0000000000000000e+00  1.0592839741717428e+00 -3.5158764390571716e-02 0.0000000000000000e+00  1.0411571008864480e+00 -5.2513597283563390e-02 0.0000000000000000e+00  1.0138944405608212e+00 -7.6321066819914241e-02 0.0000000000000000e+00  9.7893025644194120e-01 -1.1815622277940387e-01 0.0000000000000000e+00  9.3088738182005681e-01 -1.6405574631182912e-01 0.0000000000000000e+00  8.6286094493602672e-01 -2.0345766074553698e-01 0.0000000000000000e+00  7.9008156924956974e-01 -2.2970246960190566e-01 0.0000000000000000e+00  7.3711681742561919e-01 -2.4267309800890743e-01 0.0000000000000000e+00  7.2622809459046900e-01 -2.4698293927727330e-01 0.0000000000000000e+00  7.7016879360620605e-01 -2.4368669496809697e-01 0.0000000000000000e+00  8.6799531260331741e-01 -2.2810349780690337e-01 0.0000000000000000e+00  9.9076745014501200e-01 -1.9268861718881586e-01 0.0000000000000000e+00  1.0936872087106093e+00 -1.4005925212912487e-01 0.0000000000000000e+00  1.1453074156962280e+00 -9.0792384932234932e-02 0.0000000000000000e+00  1.1524641301268510e+00 -4.9150693115070296e-02 0.0000000000000000e+00  1.1338044765729971e+00 -2.5682484242634009e-02 0.0000000000000000e+00  1.1131797220895463e+00 -1.0877143750228368e-02 0.0000000000000000e+00  1.0996732112001957e+00 -3.9789855444959579e-03 0.0000000000000000e+00  1.0931016528033037e+00 -1.1397423774856933e-03 0.0000000000000000e+00  1.0890490091310947e+00 -2.9445848856245134e-04 0.0000000000000000e+00  1.0863676231213228e+00 0.0000000000000000e+00 0.0000000000000000e+00  1.0836245941411677e+00 0.0000000000000000e+00 0.0000000000000000e+00  1.0789851273530555e+00 0.0000000000000000e+00 0.0000000000000000e+00  1.0734404322805871e+00 0.0000000000000000e+00 0.0000000000000000e+00  1.0670411701851943e+00 0.0000000000000000e+00 0.0000000000000000e+00  1.0620280599003322e+00 0.0000000000000000e+00 0.0000000000000000e+00  1.0587903689679012e+00 0.0000000000000000e+00 0.0000000000000000e+00  1.0579424459083548e+00 0.0000000000000000e+00 0.0000000000000000e+00  1.0585132820014458e+00 0.0000000000000000e+00 0.0000000000000000e+00  1.0609136187060686e+00 0.0000000000000000e+00 0.0000000000000000e+00  1.0638528995418350e+00 0.0000000000000000e+00 0.0000000000000000e+00  1.0663301611059861e+00 0.0000000000000000e+00 0.0000000000000000e+00  1.0676363865059320e+00 0.0000000000000000e+00 0.0000000000000000e+00  1.0679093653552283e+00 0.0000000000000000e+00 0.0000000000000000e+00  1.0654838035372540e+00 0.0000000000000000e+00 0.0000000000000000e+00  1.0626678092818373e+00 0.0000000000000000e+00 0.0000000000000000e+00  1.0577876704625164e+00 0.0000000000000000e+00 0.0000000000000000e+00  1.0537313803298232e+00 0.0000000000000000e+00 0.0000000000000000e+00  1.0507270949320475e+00 0.0000000000000000e+00 0.0000000000000000e+00  1.0501199273199655e+00 0.0000000000000000e+00 0.0000000000000000e+00  1.0512701521873919e+00 0.0000000000000000e+00 0.0000000000000000e+00  1.0538964972534715e+00 0.0000000000000000e+00 0.0000000000000000e+00  1.0578927422314419e+00 0.0000000000000000e+00 0.0000000000000000e+00  1.0635973030188779e+00 0.0000000000000000e+00 0.0000000000000000e+00  1.0645112905440901e+00 0.0000000000000000e+00 0.0000000000000000e+00  1.0623501439335290e+00 0.0000000000000000e+00 0.0000000000000000e+00  1.0599179235881588e+00 0.0000000000000000e+00 0.0000000000000000e+00  1.0572101312475879e+00 0.0000000000000000e+00 0.0000000000000000e+00  1.0532437578563272e+00 0.0000000000000000e+00 0.0000000000000000e+00  1.0481218235346499e+00 0.0000000000000000e+00 0.0000000000000000e+00  1.0468895495670314e+00 0.0000000000000000e+00 0.0000000000000000e+00  1.0475043614865702e+00 0.0000000000000000e+00 0.0000000000000000e+00  1.0491913806654136e+00 0.0000000000000000e+00 0.0000000000000000e+00  1.0529221183872746e+00 0.0000000000000000e+00 0.0000000000000000e+00  1.0572581683368401e+00 0.0000000000000000e+00 0.0000000000000000e+00  1.0604458142968911e+00 0.0000000000000000e+00 0.0000000000000000e+00  1.0629206219511689e+00 0.0000000000000000e+00 0.0000000000000000e+00  1.0630460165383657e+00 0.0000000000000000e+00 0.0000000000000000e+00  1.0600238076185857e+00 0.0000000000000000e+00 0.0000000000000000e+00  1.0562598767017466e+00 0.0000000000000000e+00 0.0000000000000000e+00  1.0513337180020939e+00 0.0000000000000000e+00 0.0000000000000000e+00  1.0454740453970208e+00 0.0000000000000000e+00 0.0000000000000000e+00  1.0417855513569529e+00 0.0000000000000000e+00 0.0000000000000000e+00  1.0398564791267018e+00 0.0000000000000000e+00 0.0000000000000000e+00  1.0392020839237726e+00 0.0000000000000000e+00 0.0000000000000000e+00  1.0423643817198802e+00 0.0000000000000000e+00 0.0000000000000000e+00  1.0471507615108855e+00 0.0000000000000000e+00 0.0000000000000000e+00  1.0521001299298947e+00 0.0000000000000000e+00 0.0000000000000000e+00  1.0572124401293588e+00 0.0000000000000000e+00 0.0000000000000000e+00  1.0611908252703188e+00 0.0000000000000000e+00 0.0000000000000000e+00  1.0627235425229851e+00 0.0000000000000000e+00 0.0000000000000000e+00  1.0623963121844733e+00 0.0000000000000000e+00 0.0000000000000000e+00  1.0599917445277607e+00 0.0000000000000000e+00 0.0000000000000000e+00  1.0561179793742230e+00 0.0000000000000000e+00 0.0000000000000000e+00  1.0527760888197049e+00 0.0000000000000000e+00 0.0000000000000000e+00  1.0492535355182002e+00 0.0000000000000000e+00 0.0000000000000000e+00  1.0479172836247579e+00 0.0000000000000000e+00 0.0000000000000000e+00  1.0497039307279397e+00 0.0000000000000000e+00 0.0000000000000000e+00  1.0537567683172442e+00 0.0000000000000000e+00 0.0000000000000000e+00  1.0593021331994472e+00 0.0000000000000000e+00 0.0000000000000000e+00  1.0658555290134792e+00 0.0000000000000000e+00 0.0000000000000000e+00  1.0733329943566401e+00 0.0000000000000000e+00 0.0000000000000000e+00  1.0813433370777790e+00 0.0000000000000000e+00 0.0000000000000000e+00  1.0876866505178404e+00 0.0000000000000000e+00 0.0000000000000000e+00  1.0923097047682651e+00 0.0000000000000000e+00 0.0000000000000000e+00  1.0966154848715801e+00 0.0000000000000000e+00 0.0000000000000000e+00  1.0973412580966606e+00 0.0000000000000000e+00 0.0000000000000000e+00  1.0971146404828307e+00 0.0000000000000000e+00 0.0000000000000000e+00  1.0947425761318172e+00 0.0000000000000000e+00 0.0000000000000000e+00  1.0901710483768492e+00 0.0000000000000000e+00 0.0000000000000000e+00  1.0843602206999765e+00 0.0000000000000000e+00 0.0000000000000000e+00  1.0777525178638045e+00 0.0000000000000000e+00 0.0000000000000000e+00  1.0703924126279107e+00 0.0000000000000000e+00 0.0000000000000000e+00  1.0618558036715144e+00 0.0000000000000000e+00 0.0000000000000000e+00  1.0541967862956563e+00 0.0000000000000000e+00 0.0000000000000000e+00  1.0460316105856975e+00 0.0000000000000000e+00 0.0000000000000000e+00  1.0308867717154293e+00 0.0000000000000000e+00 0.0000000000000000e+00  1.0244520667515382e+00 0.0000000000000000e+00 0.0000000000000000e+00  1.0193731833704804e+00 0.0000000000000000e+00 0.0000000000000000e+00  1.0148201099472762e+00 0.0000000000000000e+00 0.0000000000000000e+00  1.0111113199592778e+00 0.0000000000000000e+00 0.0000000000000000e+00  1.0082036444686187e+00 0.0000000000000000e+00 0.0000000000000000e+00  1.0060369347043108e+00 0.0000000000000000e+00 0.0000000000000000e+00  1.0039621393705420e+00 0.0000000000000000e+00 0.0000000000000000e+00  1.0026041020519758e+00 0.0000000000000000e+00 0.0000000000000000e+00  1.0017384360284487e+00 0.0000000000000000e+00 0.0000000000000000e+00  1.0007408724952269e+00 0.0000000000000000e+00 0.0000000000000000e+00  1.0007669203825553e+00 0.0000000000000000e+00 0.0000000000000000e+00  9.9989083530487533e-01 0.0000000000000000e+00 0.0000000000000000e+00  1.0000218268339833e+00 0.0000000000000000e+00 0.0000000000000000e+00  9.9972186029091659e-01 0.0000000000000000e+00 0.0000000000000000e+00  1.0004734464413154e+00 0.0000000000000000e+00 0.0000000000000000e+00  1.0002523475972420e+00 0.0000000000000000e+00 0.0000000000000000e+00  9.9979966708470580e-01 0.0000000000000000e+00 0.0000000000000000e+00  1.0000001302565518e+00 0.0000000000000000e+00 0.0000000000000000e+00  1.0000001302565518e+00 0.0000000000000000e+00 0.0000000000000000e+00  1.0000001302565518e+00 0.0000000000000000e+00 0.0000000000000000e+00  1.0000001302565518e+00 0.0000000000000000e+00 0.0000000000000000e+00  1.0000001302565518e+00 0.0000000000000000e+00 0.0000000000000000e+00  1.0000001302565518e+00 0.0000000000000000e+00 0.0000000000000000e+00  1.0000001302565518e+00 0.0000000000000000e+00 0.0000000000000000e+00  1.0000001302565518e+00 0.0000000000000000e+00 0.0000000000000000e+00  1.0000001302565518e+00 0.0000000000000000e+00 0.0000000000000000e+00  1.0000001302565518e+00 0.0000000000000000e+00 0.0000000000000000e+00  1.0000001302565518e+00 0.0000000000000000e+00 0.0000000000000000e+00  1.0000001302565518e+00 0.0000000000000000e+00 0.0000000000000000e+00  1.0000001302565518e+00 0.0000000000000000e+00 0.0000000000000000e+00  1.0000001302565518e+00 0.0000000000000000e+00 0.0000000000000000e+00  1.0000001302565518e+00 0.0000000000000000e+00 0.0000000000000000e+00  1.0000001302565518e+00 0.0000000000000000e+00 0.0000000000000000e+00  1.0000001302565518e+00 0.0000000000000000e+00 0.0000000000000000e+00  1.0000001302565518e+00 0.0000000000000000e+00 0.0000000000000000e+00  1.0000001302565518e+00 0.0000000000000000e+00 0.0000000000000000e+00  1.0000001302565518e+00 0.0000000000000000e+00 0.0000000000000000e+00  1.0420209557330482e+00 -9.3864772428146354e-03 0.0000000000000000e+00  1.0392488602572507e+00 -1.9017733175484868e-02 0.0000000000000000e+00  1.0373587799041786e+00 -2.9554994042790120e-02 0.0000000000000000e+00  1.0320436165050249e+00 -4.0779355075894599e-02 0.0000000000000000e+00  1.0267580552266564e+00 -5.6204775116555673e-02 0.0000000000000000e+00  1.0314213884880397e+00 -5.9500000092735150e-02 0.0000000000000000e+00  1.0357121707509835e+00 -6.2827278112449633e-02 0.0000000000000000e+00  1.0410355864679424e+00 -6.5804302682740359e-02 0.0000000000000000e+00  1.0466325338620608e+00 -6.8573843817684235e-02 0.0000000000000000e+00  1.0528621522117521e+00 -7.0864769583300152e-02 0.0000000000000000e+00  1.0596670461974693e+00 -7.2724100416463586e-02 0.0000000000000000e+00  1.0669117418031415e+00 -7.3840027075072132e-02 0.0000000000000000e+00  1.0746459710315073e+00 -7.4317597835230148e-02 0.0000000000000000e+00  1.0824763198374046e+00 -7.3809742852817758e-02 0.0000000000000000e+00  1.0905875689603146e+00 -7.2542990409001792e-02 0.0000000000000000e+00  1.0986765059701857e+00 -7.0385617235957765e-02 0.0000000000000000e+00  1.1067646953046202e+00 -6.7035567297775447e-02 0.0000000000000000e+00  1.1143735019387315e+00 -6.2621107035509757e-02 0.0000000000000000e+00  1.1215572749990415e+00 -5.7370260517561021e-02 0.0000000000000000e+00  1.1281386251417898e+00 -5.1181579142978904e-02 0.0000000000000000e+00  1.1338476789919705e+00 -4.4098819886970619e-02 0.0000000000000000e+00  1.1386744729876588e+00 -3.6312514588096201e-02 0.0000000000000000e+00  1.1424394045842539e+00 -2.7966845878481639e-02 0.0000000000000000e+00  1.1451167938436497e+00 -1.8976901976292017e-02 0.0000000000000000e+00  1.1466029437653535e+00 -9.9151962452480851e-03 0.0000000000000000e+00  1.1468635934053477e+00 -5.0640845493618309e-04 0.0000000000000000e+00  1.1456721315806837e+00 8.9575345507042926e-03 0.0000000000000000e+00  1.1433633548689299e+00 1.8115043845635313e-02 0.0000000000000000e+00  1.1395893025721608e+00 2.6828771841793851e-02 0.0000000000000000e+00  1.1346080180904141e+00 3.4979372677606362e-02 0.0000000000000000e+00  1.1284012460199311e+00 4.2348031506150796e-02 0.0000000000000000e+00  1.1210883162336764e+00 4.8579810566542689e-02 0.0000000000000000e+00  1.1128495506401790e+00 5.3746166319885463e-02 0.0000000000000000e+00  1.1038197762624997e+00 5.7670868890062434e-02 0.0000000000000000e+00  1.0943224219772663e+00 6.0038690181941745e-02 0.0000000000000000e+00  1.0844880871810270e+00 6.089