<?xml version="1.0"?>
<VTKFile type="UnstructuredGrid"  version="0.1"  >
<UnstructuredGrid>
<Piece  NumberOfPoints="10199" NumberOfCells="20110">
<Points>
<DataArray  type="Float64"  NumberOfComponents="3"  format="ascii">0 -5 0  8 -5 0  30 -5 0  40 -5 0  40 5 0  30 5 0  8 5 0  0 5 0  8 -2.5 0  15 -2.5 0  30 -2.5 0  30 2.5 0  15 2.5 0  8 2.5 0  10 0.5 0  10 -0.5 0  0 0 0  0.4210526315780956 -5 0  0.8421052631563433 -5 0  1.263157894734281 -5 0  1.684210526311999 -5 0  2.105263157889717 -5 0  2.526315789467435 -5 0  2.947368421045153 -5 0  3.368421052622872 -5 0  3.78947368420059 -5 0  4.210526315779479 -5 0  4.631578947359537 -5 0  5.052631578939595 -5 0  5.473684210519653 -5 0  5.89473684209971 -5 0  6.315789473679768 -5 0  6.736842105259826 -5 0  7.157894736839884 -5 0  7.578947368419942 -5 0  8.407407407405314 -5 0  8.814814814810628 -5 0  9.222222222215942 -5 0  9.629629629621256 -5 0  10.03703703702657 -5 0  10.44444444443188 -5 0  10.8518518518372 -5 0  11.25925925924251 -5 0  11.66666666664783 -5 0  12.07407407405314 -5 0  12.48148148145846 -5 0  12.88888888886377 -5 0  13.29629629626908 -5 0  13.7037037036744 -5 0  14.11111111107971 -5 0  14.51851851848502 -5 0  14.92592592589034 -5 0  15.33333333329565 -5 0  15.74074074070096 -5 0  16.14814814810754 -5 0  16.55555555551614 -5 0  16.96296296292474 -5 0  17.37037037033335 -5 0  17.77777777774195 -5 0  18.18518518515056 -5 0  18.59259259255916 -5 0  18.99999999996776 -5 0  19.40740740737636 -5 0  19.81481481478497 -5 0  20.22222222219357 -5 0  20.62962962960217 -5 0  21.03703703701077 -5 0  21.44444444441937 -5 0  21.85185185182797 -5 0  22.25925925923657 -5 0  22.66666666664518 -5 0  23.07407407405378 -5 0  23.48148148146238 -5 0  23.88888888887098 -5 0  24.29629629627958 -5 0  24.70370370368818 -5 0  25.11111111109678 -5 0  25.51851851850539 -5 0  25.92592592591399 -5 0  26.33333333332259 -5 0  26.74074074073119 -5 0  27.14814814813979 -5 0  27.55555555554839 -5 0  27.96296296295699 -5 0  28.3703703703656 -5 0  28.7777777777742 -5 0  29.1851851851828 -5 0  29.5925925925914 -5 0  30.41666666667852 -5 0  30.83333333335704 -5 0  31.25000000003556 -5 0  31.66666666671408 -5 0  32.08333333338936 -5 0  32.50000000005308 -5 0  32.9166666667168 -5 0  33.33333333338052 -5 0  33.75000000004424 -5 0  34.16666666670795 -5 0  34.58333333337167 -5 0  35.00000000003539 -5 0  35.41666666669911 -5 0  35.83333333336282 -5 0  36.25000000002654 -5 0  36.66666666669026 -5 0  37.08333333335398 -5 0  37.50000000001769 -5 0  37.91666666668141 -5 0  38.33333333334513 -5 0  38.75000000000885 -5 0  39.16666666667257 -5 0  39.58333333333628 -5 0  40 -4.583333333332821 0  40 -4.166666666665642 0  40 -3.74999999999855 0  40 -3.333333333333135 0  40 -2.916666666667806 0  40 -2.500000000002478 0  40 -2.083333333337148 0  40 -1.666666666671818 0  40 -1.250000000006488 0  40 -0.8333333333405228 0  40 -0.4166666666733416 0  40 -6.163070054299169e-12 0  40 0.4166666666610173 0  40 0.8333333333281976 0  40 1.249999999995378 0  40 1.666666666662558 0  40 2.083333333329739 0  40 2.499999999996919 0  40 2.916666666664099 0  40 3.33333333333128 0  40 3.74999999999846 0  40 4.166666666665641 0  40 4.583333333332821 0  39.58333333333628 5 0  39.16666666667256 5 0  38.75000000000885 5 0  38.33333333334513 5 0  37.91666666668141 5 0  37.50000000001769 5 0  37.08333333335398 5 0  36.66666666669025 5 0  36.25000000002654 5 0  35.83333333336282 5 0  35.41666666669911 5 0  35.00000000003539 5 0  34.58333333337167 5 0  34.16666666670795 5 0  33.75000000004424 5 0  33.33333333338052 5 0  32.9166666667168 5 0  32.50000000005308 5 0  32.08333333338936 5 0  31.66666666671408 5 0  31.25000000003556 5 0  30.83333333335704 5 0  30.41666666667852 5 0  29.59259259259259 5 0  29.18518518518519 5 0  28.77777777777778 5 0  28.37037037037037 5 0  27.96296296296296 5 0  27.55555555555556 5 0  27.14814814814815 5 0  26.74074074074074 5 0  26.33333333333333 5 0  25.92592592592593 5 0  25.51851851851852 5 0  25.11111111111111 5 0  24.7037037037037 5 0  24.2962962962963 5 0  23.88888888888889 5 0  23.48148148148148 5 0  23.07407407407408 5 0  22.66666666666667 5 0  22.25925925925926 5 0  21.85185185185185 5 0  21.44444444444445 5 0  21.03703703703704 5 0  20.62962962962963 5 0  20.22222222222222 5 0  19.81481481481482 5 0  19.40740740740741 5 0  19 5 0  18.5925925925926 5 0  18.18518518518519 5 0  17.77777777777778 5 0  17.37037037037037 5 0  16.96296296296296 5 0  16.55555555555556 5 0  16.14814814814815 5 0  15.74074074074074 5 0  15.33333333333333 5 0  14.92592592592593 5 0  14.51851851851852 5 0  14.11111111111111 5 0  13.70370370370371 5 0  13.2962962962963 5 0  12.88888888888889 5 0  12.48148148148148 5 0  12.07407407407408 5 0  11.66666666666667 5 0  11.25925925925926 5 0  10.85185185185185 5 0  10.44444444444445 5 0  10.03703703703704 5 0  9.629629629629633 5 0  9.222222222222221 5 0  8.814814814814817 5 0  8.407407407407408 5 0  7.5789473684193 5 0  7.157894736838599 5 0  6.73684210526082 5 0  6.315789473684795 5 0  5.894736842108769 5 0  5.473684210532742 5 0  5.052631578956715 5 0  4.631578947380689 5 0  4.210526315804662 5 0  3.789473684226299 5 0  3.368421052645599 5 0  2.947368421064898 5 0  2.526315789484198 5 0  2.105263157903499 5 0  1.6842105263228 5 0  1.2631578947421 5 0  0.8421052631613994 5 0  0.4210526315806993 5 0  0 4.545454545454545 0  0 4.09090909090909 0  0 3.636363636363634 0  0 3.18181818181818 0  0 2.727272727272726 0  0 2.272727272727271 0  0 1.818181818181817 0  0 1.363636363636363 0  0 0.9090909090909092 0  0 0.454545454545455 0  0 -0.4545454545450807 0  0 -0.9090909090895867 0  0 -1.363636363633713 0  0 -1.818181818177841 0  0 -2.272727272723127 0  0 -2.727272727269273 0  0 -3.181818181815419 0  0 -3.636363636361564 0  0 -4.090909090907709 0  0 -4.545454545453855 0  8 -4.499999999999999 0  8 -3.999999999999999 0  8 -3.499999999999999 0  8 -3 0  8.137254901963859 -2.5 0  8.274509803926303 -2.5 0  8.411764705886863 -2.5 0  8.549019607849138 -2.5 0  8.686274509809513 -2.5 0  8.82352941176989 -2.5 0  8.960784313730265 -2.5 0  9.098039215690642 -2.5 0  9.235294117651017 -2.5 0  9.372549019611395 -2.5 0  9.50980392157177 -2.5 0  9.647058823532147 -2.5 0  9.784313725492522 -2.5 0  9.921568627452897 -2.5 0  10.05882352941327 -2.5 0  10.19607843137365 -2.5 0  10.33333333333402 -2.5 0  10.4705882352944 -2.5 0  10.60784313725478 -2.5 0  10.74509803921515 -2.5 0  10.88235294117553 -2.5 0  11.0196078431359 -2.5 0  11.15686274509628 -2.5 0  11.29411764705665 -2.5 0  11.43137254901703 -2.5 0  11.56862745097915 -2.5 0  11.70588235294301 -2.5 0  11.84313725490686 -2.5 0  11.98039215687072 -2.5 0  12.11764705883209 -2.5 0  12.25490196079247 -2.5 0  12.39215686275285 -2.5 0  12.52941176471322 -2.5 0  12.6666666666736 -2.5 0  12.80392156863397 -2.5 0  12.94117647059435 -2.5 0  13.07843137255473 -2.5 0  13.2156862745151 -2.5 0  13.35294117647548 -2.5 0  13.49019607843586 -2.5 0  13.62745098039623 -2.5 0  13.76470588235661 -2.5 0  13.90196078431699 -2.5 0  14.03921568627736 -2.5 0  14.17647058823774 -2.5 0  14.31372549019812 -2.5 0  14.45098039215849 -2.5 0  14.58823529411887 -2.5 0  14.72549019607925 -2.5 0  14.86274509803962 -2.5 0  15.20270270270254 -2.5 0  15.40540540540509 -2.5 0  15.60810810810763 -2.5 0  15.81081081081017 -2.5 0  16.01351351351227 -2.5 0  16.21621621621265 -2.5 0  16.41891891891279 -2.5 0  16.62162162161294 -2.5 0  16.82432432431308 -2.5 0  17.02702702701322 -2.5 0  17.22972972971337 -2.5 0  17.43243243241351 -2.5 0  17.63513513511365 -2.5 0  17.83783783781379 -2.5 0  18.04054054051394 -2.5 0  18.24324324321408 -2.5 0  18.44594594591422 -2.5 0  18.64864864861436 -2.5 0  18.85135135131451 -2.5 0  19.05405405401465 -2.5 0  19.25675675671479 -2.5 0  19.45945945941494 -2.5 0  19.66216216211508 -2.5 0  19.86486486481522 -2.5 0  20.06756756751536 -2.5 0  20.27027027021551 -2.5 0  20.47297297291565 -2.5 0  20.6756756756158 -2.5 0  20.87837837831594 -2.5 0  21.08108108101608 -2.5 0  21.28378378371622 -2.5 0  21.48648648641637 -2.5 0  21.68918918911651 -2.5 0  21.89189189181666 -2.5 0  22.0945945945168 -2.5 0  22.29729729721694 -2.5 0  22.49999999991778 -2.5 0  22.70270270262203 -2.5 0  22.90540540532697 -2.5 0  23.10810810803191 -2.5 0  23.31081081073686 -2.5 0  23.5135135134418 -2.5 0  23.71621621614674 -2.5 0  23.91891891885169 -2.5 0  24.12162162155663 -2.5 0  24.32432432426158 -2.5 0  24.52702702696652 -2.5 0  24.72972972967146 -2.5 0  24.93243243237641 -2.5 0  25.13513513508135 -2.5 0  25.3378378377863 -2.5 0  25.54054054049124 -2.5 0  25.74324324319618 -2.5 0  25.94594594590112 -2.5 0  26.14864864860607 -2.5 0  26.35135135131101 -2.5 0  26.55405405401596 -2.5 0  26.7567567567209 -2.5 0  26.95945945942584 -2.5 0  27.16216216213079 -2.5 0  27.36486486483573 -2.5 0  27.56756756754068 -2.5 0  27.77027027024562 -2.5 0  27.97297297295056 -2.5 0  28.1756756756555 -2.5 0  28.37837837836045 -2.5 0  28.5810810810654 -2.5 0  28.78378378377034 -2.5 0  28.98648648647528 -2.5 0  29.18918918918023 -2.5 0  29.39189189188517 -2.5 0  29.59459459459011 -2.5 0  29.79729729729506 -2.5 0  30 -3.000000000000001 0  30 -3.500000000000001 0  30 -4.000000000000001 0  30 -4.5 0  8 4.499999999999999 0  8 3.999999999999999 0  8 3.499999999999999 0  8 3 0  8.137254901963859 2.5 0  8.274509803926303 2.5 0  8.411764705886863 2.5 0  8.549019607849138 2.5 0  8.686274509809513 2.5 0  8.82352941176989 2.5 0  8.960784313730265 2.5 0  9.098039215690642 2.5 0  9.235294117651017 2.5 0  9.372549019611395 2.5 0  9.50980392157177 2.5 0  9.647058823532147 2.5 0  9.784313725492522 2.5 0  9.921568627452897 2.5 0  10.05882352941327 2.5 0  10.19607843137365 2.5 0  10.33333333333402 2.5 0  10.4705882352944 2.5 0  10.60784313725478 2.5 0  10.74509803921515 2.5 0  10.88235294117553 2.5 0  11.0196078431359 2.5 0  11.15686274509628 2.5 0  11.29411764705665 2.5 0  11.43137254901703 2.5 0  11.56862745097915 2.5 0  11.70588235294301 2.5 0  11.84313725490686 2.5 0  11.98039215687072 2.5 0  12.11764705883209 2.5 0  12.25490196079247 2.5 0  1
[...]
<PointData  Vectors="f_17"> 
<DataArray  type="Float64"  Name="f_17"  NumberOfComponents="3" format="ascii">1.0000001377722014e+00 0.0000000000000000e+00 0.0000000000000000e+00  1.0509458739288531e+00 0.0000000000000000e+00 0.0000000000000000e+00  1.0183424345108982e+00 0.0000000000000000e+00 0.0000000000000000e+00  9.9849094642496994e-01 0.0000000000000000e+00 0.0000000000000000e+00  9.9843229368146924e-01 0.0000000000000000e+00 0.0000000000000000e+00  1.0180072281665999e+00 0.0000000000000000e+00 0.0000000000000000e+00  1.0503953150953087e+00 0.0000000000000000e+00 0.0000000000000000e+00  1.0000001377722014e+00 0.0000000000000000e+00 0.0000000000000000e+00  1.0221978759253800e+00 -6.1849764707448830e-02 0.0000000000000000e+00  1.1724495124066192e+00 4.6909784578293992e-02 0.0000000000000000e+00  1.0243831937543892e+00 7.2671948852957007e-03 0.0000000000000000e+00  1.0249971804482365e+00 -6.4356068972508378e-03 0.0000000000000000e+00  1.1635119316448395e+00 -2.9053115288446663e-02 0.0000000000000000e+00  1.0217703990016289e+00 6.1911118760580891e-02 0.0000000000000000e+00  0.0000000000000000e+00 0.0000000000000000e+00 0.0000000000000000e+00  0.0000000000000000e+00 0.0000000000000000e+00 0.0000000000000000e+00  1.0000001377722014e+00 0.0000000000000000e+00 0.0000000000000000e+00  9.9931967889579165e-01 0.0000000000000000e+00 0.0000000000000000e+00  9.9879993473945783e-01 0.0000000000000000e+00 0.0000000000000000e+00  1.0008463894693418e+00 0.0000000000000000e+00 0.0000000000000000e+00  1.0007139681545063e+00 0.0000000000000000e+00 0.0000000000000000e+00  1.0017173251656553e+00 0.0000000000000000e+00 0.0000000000000000e+00  1.0020980380436071e+00 0.0000000000000000e+00 0.0000000000000000e+00  1.0024718032077105e+00 0.0000000000000000e+00 0.0000000000000000e+00  1.0033952572017808e+00 0.0000000000000000e+00 0.0000000000000000e+00  1.0047560452831095e+00 0.0000000000000000e+00 0.0000000000000000e+00  1.0060767065137037e+00 0.0000000000000000e+00 0.0000000000000000e+00  1.0078072253846446e+00 0.0000000000000000e+00 0.0000000000000000e+00  1.0103596778609925e+00 0.0000000000000000e+00 0.0000000000000000e+00  1.0131400828847501e+00 0.0000000000000000e+00 0.0000000000000000e+00  1.0176532100376059e+00 0.0000000000000000e+00 0.0000000000000000e+00  1.0201577086129694e+00 0.0000000000000000e+00 0.0000000000000000e+00  1.0257473347419797e+00 0.0000000000000000e+00 0.0000000000000000e+00  1.0337350238009584e+00 0.0000000000000000e+00 0.0000000000000000e+00  1.0407758679104995e+00 0.0000000000000000e+00 0.0000000000000000e+00  1.0615797377955964e+00 0.0000000000000000e+00 0.0000000000000000e+00  1.0732227338273777e+00 0.0000000000000000e+00 0.0000000000000000e+00  1.0849954923252849e+00 0.0000000000000000e+00 0.0000000000000000e+00  1.0980391978485939e+00 0.0000000000000000e+00 0.0000000000000000e+00  1.1101196951751322e+00 0.0000000000000000e+00 0.0000000000000000e+00  1.1221308472144396e+00 0.0000000000000000e+00 0.0000000000000000e+00  1.1340087133531878e+00 0.0000000000000000e+00 0.0000000000000000e+00  1.1433203911198224e+00 0.0000000000000000e+00 0.0000000000000000e+00  1.1517398639814431e+00 0.0000000000000000e+00 0.0000000000000000e+00  1.1580566469788451e+00 0.0000000000000000e+00 0.0000000000000000e+00  1.1628715692495939e+00 0.0000000000000000e+00 0.0000000000000000e+00  1.1647888631327619e+00 0.0000000000000000e+00 0.0000000000000000e+00  1.1659618548048833e+00 0.0000000000000000e+00 0.0000000000000000e+00  1.1649181730607452e+00 0.0000000000000000e+00 0.0000000000000000e+00  1.1624119846033309e+00 0.0000000000000000e+00 0.0000000000000000e+00  1.1589468960629452e+00 0.0000000000000000e+00 0.0000000000000000e+00  1.1541291671408351e+00 0.0000000000000000e+00 0.0000000000000000e+00  1.1486382400648569e+00 0.0000000000000000e+00 0.0000000000000000e+00  1.1419460854077312e+00 0.0000000000000000e+00 0.0000000000000000e+00  1.1347583602256988e+00 0.0000000000000000e+00 0.0000000000000000e+00  1.1283633319623148e+00 0.0000000000000000e+00 0.0000000000000000e+00  1.1227092202678872e+00 0.0000000000000000e+00 0.0000000000000000e+00  1.1156514083835836e+00 0.0000000000000000e+00 0.0000000000000000e+00  1.1100186493015152e+00 0.0000000000000000e+00 0.0000000000000000e+00  1.1042909000503147e+00 0.0000000000000000e+00 0.0000000000000000e+00  1.0988812944348345e+00 0.0000000000000000e+00 0.0000000000000000e+00  1.0939828518146346e+00 0.0000000000000000e+00 0.0000000000000000e+00  1.0888454946863404e+00 0.0000000000000000e+00 0.0000000000000000e+00  1.0837560064741583e+00 0.0000000000000000e+00 0.0000000000000000e+00  1.0791023789636840e+00 0.0000000000000000e+00 0.0000000000000000e+00  1.0737259377498061e+00 0.0000000000000000e+00 0.0000000000000000e+00  1.0682746969867287e+00 0.0000000000000000e+00 0.0000000000000000e+00  1.0645212989346984e+00 0.0000000000000000e+00 0.0000000000000000e+00  1.0599061150441653e+00 0.0000000000000000e+00 0.0000000000000000e+00  1.0553917326970084e+00 0.0000000000000000e+00 0.0000000000000000e+00  1.0522045992878968e+00 0.0000000000000000e+00 0.0000000000000000e+00  1.0484737611774104e+00 0.0000000000000000e+00 0.0000000000000000e+00  1.0449195322399325e+00 0.0000000000000000e+00 0.0000000000000000e+00  1.0431645986033480e+00 0.0000000000000000e+00 0.0000000000000000e+00  1.0407264939728351e+00 0.0000000000000000e+00 0.0000000000000000e+00  1.0384085793970528e+00 0.0000000000000000e+00 0.0000000000000000e+00  1.0370346716185341e+00 0.0000000000000000e+00 0.0000000000000000e+00  1.0350737184660579e+00 0.0000000000000000e+00 0.0000000000000000e+00  1.0331817820386708e+00 0.0000000000000000e+00 0.0000000000000000e+00  1.0319963582124005e+00 0.0000000000000000e+00 0.0000000000000000e+00  1.0299580850984937e+00 0.0000000000000000e+00 0.0000000000000000e+00  1.0276989845484403e+00 0.0000000000000000e+00 0.0000000000000000e+00  1.0279142048175780e+00 0.0000000000000000e+00 0.0000000000000000e+00  1.0261792292785852e+00 0.0000000000000000e+00 0.0000000000000000e+00  1.0229104099079234e+00 0.0000000000000000e+00 0.0000000000000000e+00  1.0207973258769214e+00 0.0000000000000000e+00 0.0000000000000000e+00  1.0203616603745942e+00 0.0000000000000000e+00 0.0000000000000000e+00  1.0190921907957733e+00 0.0000000000000000e+00 0.0000000000000000e+00  1.0173097773983690e+00 0.0000000000000000e+00 0.0000000000000000e+00  1.0155762625530849e+00 0.0000000000000000e+00 0.0000000000000000e+00  1.0138968727676771e+00 0.0000000000000000e+00 0.0000000000000000e+00  1.0131328579735555e+00 0.0000000000000000e+00 0.0000000000000000e+00  1.0124198243327274e+00 0.0000000000000000e+00 0.0000000000000000e+00  1.0113158174645669e+00 0.0000000000000000e+00 0.0000000000000000e+00  1.0102878222459166e+00 0.0000000000000000e+00 0.0000000000000000e+00  1.0095489091543368e+00 0.0000000000000000e+00 0.0000000000000000e+00  1.0088492531007249e+00 0.0000000000000000e+00 0.0000000000000000e+00  1.0077005884228911e+00 0.0000000000000000e+00 0.0000000000000000e+00  1.0070659085238169e+00 0.0000000000000000e+00 0.0000000000000000e+00  1.0062203542777064e+00 0.0000000000000000e+00 0.0000000000000000e+00  1.0051006552085182e+00 0.0000000000000000e+00 0.0000000000000000e+00  1.0044685820521242e+00 0.0000000000000000e+00 0.0000000000000000e+00  1.0037434550332829e+00 0.0000000000000000e+00 0.0000000000000000e+00  1.0035252764561848e+00 0.0000000000000000e+00 0.0000000000000000e+00  1.0023754660098572e+00 0.0000000000000000e+00 0.0000000000000000e+00  1.0017732358977374e+00 0.0000000000000000e+00 0.0000000000000000e+00  1.0008712155218273e+00 0.0000000000000000e+00 0.0000000000000000e+00  1.0006634024614756e+00 0.0000000000000000e+00 0.0000000000000000e+00  9.9984424189357113e-01 0.0000000000000000e+00 0.0000000000000000e+00  9.9964529020101500e-01 0.0000000000000000e+00 0.0000000000000000e+00  9.9862598123636870e-01 0.0000000000000000e+00 0.0000000000000000e+00  9.9913842452724722e-01 4.8393943129422550e-04 0.0000000000000000e+00  1.0003874653127200e+00 8.6333396737306813e-04 0.0000000000000000e+00  1.0022595965391063e+00 1.3340305764110918e-03 0.0000000000000000e+00  1.0027120676176704e+00 1.9039271672625058e-03 0.0000000000000000e+00  1.0035071186630637e+00 2.3830529560202787e-03 0.0000000000000000e+00  1.0029301912888275e+00 2.9635159973626641e-03 0.0000000000000000e+00  1.0020422513208294e+00 3.5081724504583138e-03 0.0000000000000000e+00  1.0012597447367080e+00 3.9661061011033198e-03 0.0000000000000000e+00  9.9942232646035456e-01 4.1157909645685980e-03 0.0000000000000000e+00  9.9727075348079297e-01 3.7920173699721601e-03 0.0000000000000000e+00  9.9639369955517143e-01 1.7447390394564432e-03 0.0000000000000000e+00  9.9576569963338391e-01 -3.1260466319059518e-04 0.0000000000000000e+00  9.9531323746839251e-01 -2.7240893428635521e-03 0.0000000000000000e+00  9.9634817374470230e-01 -4.0281127174950160e-03 0.0000000000000000e+00  9.9936573892296254e-01 -3.9335672489971430e-03 0.0000000000000000e+00  1.0017902635706903e+00 -3.4576677401641290e-03 0.0000000000000000e+00  1.0018445919076315e+00 -3.5497612286024202e-03 0.0000000000000000e+00  1.0019750115311217e+00 -2.9564887587160442e-03 0.0000000000000000e+00  1.0015526676172504e+00 -2.3139803375417409e-03 0.0000000000000000e+00  1.0017299550623617e+00 -1.8212677047146362e-03 0.0000000000000000e+00  1.0007776681076148e+00 -1.3102651757995877e-03 0.0000000000000000e+00  1.0002753419826007e+00 -8.7261218319740932e-04 0.0000000000000000e+00  9.9919637446740506e-01 -4.9466773130903000e-04 0.0000000000000000e+00  9.9870555375887404e-01 0.0000000000000000e+00 0.0000000000000000e+00  9.9917562208682864e-01 0.0000000000000000e+00 0.0000000000000000e+00  9.9968250292176219e-01 0.0000000000000000e+00 0.0000000000000000e+00  1.0005363230774698e+00 0.0000000000000000e+00 0.0000000000000000e+00  1.0008034531442598e+00 0.0000000000000000e+00 0.0000000000000000e+00  1.0015947654268378e+00 0.0000000000000000e+00 0.0000000000000000e+00  1.0025923836536426e+00 0.0000000000000000e+00 0.0000000000000000e+00  1.0037244886933807e+00 0.0000000000000000e+00 0.0000000000000000e+00  1.0042058374272615e+00 0.0000000000000000e+00 0.0000000000000000e+00  1.0050209382021391e+00 0.0000000000000000e+00 0.0000000000000000e+00  1.0057287368970329e+00 0.0000000000000000e+00 0.0000000000000000e+00  1.0063318294246282e+00 0.0000000000000000e+00 0.0000000000000000e+00  1.0070105113559176e+00 0.0000000000000000e+00 0.0000000000000000e+00  1.0083981665270358e+00 0.0000000000000000e+00 0.0000000000000000e+00  1.0090127829505071e+00 0.0000000000000000e+00 0.0000000000000000e+00  1.0105866137952713e+00 0.0000000000000000e+00 0.0000000000000000e+00  1.0108989845149334e+00 0.0000000000000000e+00 0.0000000000000000e+00  1.0117843256994306e+00 0.0000000000000000e+00 0.0000000000000000e+00  1.0124329307676947e+00 0.0000000000000000e+00 0.0000000000000000e+00  1.0136948011668783e+00 0.0000000000000000e+00 0.0000000000000000e+00  1.0147402632106408e+00 0.0000000000000000e+00 0.0000000000000000e+00  1.0154728038314016e+00 0.0000000000000000e+00 0.0000000000000000e+00  1.0168273368859952e+00 0.0000000000000000e+00 0.0000000000000000e+00  1.0185252618971461e+00 0.0000000000000000e+00 0.0000000000000000e+00  1.0198186407972629e+00 0.0000000000000000e+00 0.0000000000000000e+00  1.0200991364485252e+00 0.0000000000000000e+00 0.0000000000000000e+00  1.0219703366043551e+00 0.0000000000000000e+00 0.0000000000000000e+00  1.0247408672510854e+00 0.0000000000000000e+00 0.0000000000000000e+00  1.0264294873930004e+00 0.0000000000000000e+00 0.0000000000000000e+00  1.0263658923930929e+00 0.0000000000000000e+00 0.0000000000000000e+00  1.0286145221616210e+00 0.0000000000000000e+00 0.0000000000000000e+00  1.0308806620065942e+00 0.0000000000000000e+00 0.0000000000000000e+00  1.0324638337568475e+00 0.0000000000000000e+00 0.0000000000000000e+00  1.0347979614609450e+00 0.0000000000000000e+00 0.0000000000000000e+00  1.0372730230563185e+00 0.0000000000000000e+00 0.0000000000000000e+00  1.0391644745571795e+00 0.0000000000000000e+00 0.0000000000000000e+00  1.0419228187433773e+00 0.0000000000000000e+00 0.0000000000000000e+00  1.0446429266274455e+00 0.0000000000000000e+00 0.0000000000000000e+00  1.0465606796217981e+00 0.0000000000000000e+00 0.0000000000000000e+00  1.0497729089669294e+00 0.0000000000000000e+00 0.0000000000000000e+00  1.0529550544648585e+00 0.0000000000000000e+00 0.0000000000000000e+00  1.0553089281389878e+00 0.0000000000000000e+00 0.0000000000000000e+00  1.0587465393584858e+00 0.0000000000000000e+00 0.0000000000000000e+00  1.0622365540565799e+00 0.0000000000000000e+00 0.0000000000000000e+00  1.0648988880957562e+00 0.0000000000000000e+00 0.0000000000000000e+00  1.0694968739361268e+00 0.0000000000000000e+00 0.0000000000000000e+00  1.0743736227961880e+00 0.0000000000000000e+00 0.0000000000000000e+00  1.0790607254768501e+00 0.0000000000000000e+00 0.0000000000000000e+00  1.0847371238900614e+00 0.0000000000000000e+00 0.0000000000000000e+00  1.0909049345424766e+00 0.0000000000000000e+00 0.0000000000000000e+00  1.0972763284455935e+00 0.0000000000000000e+00 0.0000000000000000e+00  1.1041940131737935e+00 0.0000000000000000e+00 0.0000000000000000e+00  1.1115204175886866e+00 0.0000000000000000e+00 0.0000000000000000e+00  1.1182377559704986e+00 0.0000000000000000e+00 0.0000000000000000e+00  1.1258607930655808e+00 0.0000000000000000e+00 0.0000000000000000e+00  1.1315943055565525e+00 0.0000000000000000e+00 0.0000000000000000e+00  1.1375352610797365e+00 0.0000000000000000e+00 0.0000000000000000e+00  1.1436379219234043e+00 0.0000000000000000e+00 0.0000000000000000e+00  1.1491827098159344e+00 0.0000000000000000e+00 0.0000000000000000e+00  1.1534098482491919e+00 0.0000000000000000e+00 0.0000000000000000e+00  1.1566635951190205e+00 0.0000000000000000e+00 0.0000000000000000e+00  1.1594249766816052e+00 0.0000000000000000e+00 0.0000000000000000e+00  1.1620540498131973e+00 0.0000000000000000e+00 0.0000000000000000e+00  1.1629534842544675e+00 0.0000000000000000e+00 0.0000000000000000e+00  1.1619595596668417e+00 0.0000000000000000e+00 0.0000000000000000e+00  1.1608440589979490e+00 0.0000000000000000e+00 0.0000000000000000e+00  1.1562434776460830e+00 0.0000000000000000e+00 0.0000000000000000e+00  1.1506733793388415e+00 0.0000000000000000e+00 0.0000000000000000e+00  1.1428281972642655e+00 0.0000000000000000e+00 0.0000000000000000e+00  1.1328102141689982e+00 0.0000000000000000e+00 0.0000000000000000e+00  1.1215293192906233e+00 0.0000000000000000e+00 0.0000000000000000e+00  1.1095681150089738e+00 0.0000000000000000e+00 0.0000000000000000e+00  1.0972821601719247e+00 0.0000000000000000e+00 0.0000000000000000e+00  1.0841115123462850e+00 0.0000000000000000e+00 0.0000000000000000e+00  1.0725516988270345e+00 0.0000000000000000e+00 0.0000000000000000e+00  1.0609575286727682e+00 0.0000000000000000e+00 0.0000000000000000e+00  1.0404585650228004e+00 0.0000000000000000e+00 0.0000000000000000e+00  1.0320715884521652e+00 0.0000000000000000e+00 0.0000000000000000e+00  1.0255570735110879e+00 0.0000000000000000e+00 0.0000000000000000e+00  1.0197252549094844e+00 0.0000000000000000e+00 0.0000000000000000e+00  1.0151227403481604e+00 0.0000000000000000e+00 0.0000000000000000e+00  1.0114886075032579e+00 0.0000000000000000e+00 0.0000000000000000e+00  1.0086934736858675e+00 0.0000000000000000e+00 0.0000000000000000e+00  1.0061093969316159e+00 0.0000000000000000e+00 0.0000000000000000e+00  1.0043104636856695e+00 0.0000000000000000e+00 0.0000000000000000e+00  1.0030587233527080e+00 0.0000000000000000e+00 0.0000000000000000e+00  1.0016971057588113e+00 0.0000000000000000e+00 0.0000000000000000e+00  1.0014364361086605e+00 0.0000000000000000e+00 0.0000000000000000e+00  1.0003176055198113e+00 0.0000000000000000e+00 0.0000000000000000e+00  1.0002521156765738e+00 0.0000000000000000e+00 0.0000000000000000e+00  9.9982271310927906e-01 0.0000000000000000e+00 0.0000000000000000e+00  1.0005023760064977e+00 0.0000000000000000e+00 0.0000000000000000e+00  1.0002537802028446e+00 0.0000000000000000e+00 0.0000000000000000e+00  9.9979414242724873e-01 0.0000000000000000e+00 0.0000000000000000e+00  1.0000001377722014e+00 0.0000000000000000e+00 0.0000000000000000e+00  1.0000001377722014e+00 0.0000000000000000e+00 0.0000000000000000e+00  1.0000001377722014e+00 0.0000000000000000e+00 0.0000000000000000e+00  1.0000001377722014e+00 0.0000000000000000e+00 0.0000000000000000e+00  1.0000001377722014e+00 0.0000000000000000e+00 0.0000000000000000e+00  1.0000001377722014e+00 0.0000000000000000e+00 0.0000000000000000e+00  1.0000001377722014e+00 0.0000000000000000e+00 0.0000000000000000e+00  1.0000001377722014e+00 0.0000000000000000e+00 0.0000000000000000e+00  1.0000001377722014e+00 0.0000000000000000e+00 0.0000000000000000e+00  1.0000001377722014e+00 0.0000000000000000e+00 0.0000000000000000e+00  1.0000001377722014e+00 0.0000000000000000e+00 0.0000000000000000e+00  1.0000001377722014e+00 0.0000000000000000e+00 0.0000000000000000e+00  1.0000001377722014e+00 0.0000000000000000e+00 0.0000000000000000e+00  1.0000001377722014e+00 0.0000000000000000e+00 0.0000000000000000e+00  1.0000001377722014e+00 0.0000000000000000e+00 0.0000000000000000e+00  1.0000001377722014e+00 0.0000000000000000e+00 0.0000000000000000e+00  1.0000001377722014e+00 0.0000000000000000e+00 0.0000000000000000e+00  1.0000001377722014e+00 0.0000000000000000e+00 0.0000000000000000e+00  1.0000001377722014e+00 0.0000000000000000e+00 0.0000000000000000e+00  1.0000001377722014e+00 0.0000000000000000e+00 0.0000000000000000e+00  1.0500146222766702e+00 -1.2291804858753539e-02 0.0000000000000000e+00  1.0459003270711977e+00 -2.4554186983513276e-02 0.0000000000000000e+00  1.0418112050808599e+00 -3.7058230592161824e-02 0.0000000000000000e+00  1.0336411082567425e+00 -4.9721937914881463e-02 0.0000000000000000e+00  1.0249724402669409e+00 -6.6540422871995658e-02 0.0000000000000000e+00  1.0296285257017106e+00 -7.0897269518181205e-02 0.0000000000000000e+00  1.0338643605102804e+00 -7.5407812870047039e-02 0.0000000000000000e+00  1.0391802792921587e+00 -7.9698297254741868e-02 0.0000000000000000e+00  1.0447949305154209e+00 -8.3925849163338617e-02 0.0000000000000000e+00  1.0510788095024157e+00 -8.7846214875662298e-02 0.0000000000000000e+00  1.0579907377668933e+00 -9.1505291894748972e-02 0.0000000000000000e+00  1.0654282137254907e+00 -9.4602037152388893e-02 0.0000000000000000e+00  1.0734201012453224e+00 -9.7286659181001184e-02 0.0000000000000000e+00  1.0816441048342751e+00 -9.9202962553275043e-02 0.0000000000000000e+00  1.0902755176043559e+00 -1.0058586375510786e-01 0.0000000000000000e+00  1.0990842627028190e+00 -1.0128682917828687e-01 0.0000000000000000e+00  1.1080620797412688e+00 -1.0106810254757601e-01 0.0000000000000000e+00  1.1168195364041833e+00 -1.0005757262219707e-01 0.0000000000000000e+00  1.1254610330123009e+00 -9.8420441106872231e-02 0.0000000000000000e+00  1.1338299370970808e+00 -9.6084262439912554e-02 0.0000000000000000e+00  1.1417217671483271e+00 -9.3070371682713066e-02 0.0000000000000000e+00  1.1491986980499140e+00 -8.9548897914439693e-02 0.0000000000000000e+00  1.1561100904291410e+00 -8.5599607074342859e-02 0.0000000000000000e+00  1.1625236811091186e+00 -8.1172084683547002e-02 0.0000000000000000e+00  1.1683749506131123e+00 -7.6633116583415734e-02 0.0000000000000000e+00  1.1736925454102327e+00 -7.1785768791520335e-02 0.0000000000000000e+00  1.1783585736503184e+00 -6.6753690534234342e-02 0.0000000000000000e+00  1.1826302053962963e+00 -6.1716920699491695e-02 0.0000000000000000e+00  1.1862877374095215e+00 -5.6686198135653176e-02 0.0000000000000000e+00  1.1895108007135595e+00 -5.1668592081968619e-02 0.0000000000000000e+00  1.1922506955842411e+00 -4.6704948586513605e-02 0.0000000000000000e+00  1.1945690888415619e+00 -4.1891869020263289e-02 0.0000000000000000e+00  1.1965304220803223e+00 -3.7115186614893415e-02 0.0000000000000000e+00  1.1981304673012976e+00 -3.2426211091417155e-02 0.0000000000000000e+00  1.1994377666124247e+00 -2.7897861117678828e-02 0.0000000000000000e+00  1.2004601903612948e+00 -2.348916