<?xml version="1.0"?>
<VTKFile type="UnstructuredGrid"  version="0.1"  >
<UnstructuredGrid>
<Piece  NumberOfPoints="10199" NumberOfCells="20110">
<Points>
<DataArray  type="Float64"  NumberOfComponents="3"  format="ascii">0 -5 0  8 -5 0  30 -5 0  40 -5 0  40 5 0  30 5 0  8 5 0  0 5 0  8 -2.5 0  15 -2.5 0  30 -2.5 0  30 2.5 0  15 2.5 0  8 2.5 0  10 0.5 0  10 -0.5 0  0 0 0  0.4210526315780956 -5 0  0.8421052631563433 -5 0  1.263157894734281 -5 0  1.684210526311999 -5 0  2.105263157889717 -5 0  2.526315789467435 -5 0  2.947368421045153 -5 0  3.368421052622872 -5 0  3.78947368420059 -5 0  4.210526315779479 -5 0  4.631578947359537 -5 0  5.052631578939595 -5 0  5.473684210519653 -5 0  5.89473684209971 -5 0  6.315789473679768 -5 0  6.736842105259826 -5 0  7.157894736839884 -5 0  7.578947368419942 -5 0  8.407407407405314 -5 0  8.814814814810628 -5 0  9.222222222215942 -5 0  9.629629629621256 -5 0  10.03703703702657 -5 0  10.44444444443188 -5 0  10.8518518518372 -5 0  11.25925925924251 -5 0  11.66666666664783 -5 0  12.07407407405314 -5 0  12.48148148145846 -5 0  12.88888888886377 -5 0  13.29629629626908 -5 0  13.7037037036744 -5 0  14.11111111107971 -5 0  14.51851851848502 -5 0  14.92592592589034 -5 0  15.33333333329565 -5 0  15.74074074070096 -5 0  16.14814814810754 -5 0  16.55555555551614 -5 0  16.96296296292474 -5 0  17.37037037033335 -5 0  17.77777777774195 -5 0  18.18518518515056 -5 0  18.59259259255916 -5 0  18.99999999996776 -5 0  19.40740740737636 -5 0  19.81481481478497 -5 0  20.22222222219357 -5 0  20.62962962960217 -5 0  21.03703703701077 -5 0  21.44444444441937 -5 0  21.85185185182797 -5 0  22.25925925923657 -5 0  22.66666666664518 -5 0  23.07407407405378 -5 0  23.48148148146238 -5 0  23.88888888887098 -5 0  24.29629629627958 -5 0  24.70370370368818 -5 0  25.11111111109678 -5 0  25.51851851850539 -5 0  25.92592592591399 -5 0  26.33333333332259 -5 0  26.74074074073119 -5 0  27.14814814813979 -5 0  27.55555555554839 -5 0  27.96296296295699 -5 0  28.3703703703656 -5 0  28.7777777777742 -5 0  29.1851851851828 -5 0  29.5925925925914 -5 0  30.41666666667852 -5 0  30.83333333335704 -5 0  31.25000000003556 -5 0  31.66666666671408 -5 0  32.08333333338936 -5 0  32.50000000005308 -5 0  32.9166666667168 -5 0  33.33333333338052 -5 0  33.75000000004424 -5 0  34.16666666670795 -5 0  34.58333333337167 -5 0  35.00000000003539 -5 0  35.41666666669911 -5 0  35.83333333336282 -5 0  36.25000000002654 -5 0  36.66666666669026 -5 0  37.08333333335398 -5 0  37.50000000001769 -5 0  37.91666666668141 -5 0  38.33333333334513 -5 0  38.75000000000885 -5 0  39.16666666667257 -5 0  39.58333333333628 -5 0  40 -4.583333333332821 0  40 -4.166666666665642 0  40 -3.74999999999855 0  40 -3.333333333333135 0  40 -2.916666666667806 0  40 -2.500000000002478 0  40 -2.083333333337148 0  40 -1.666666666671818 0  40 -1.250000000006488 0  40 -0.8333333333405228 0  40 -0.4166666666733416 0  40 -6.163070054299169e-12 0  40 0.4166666666610173 0  40 0.8333333333281976 0  40 1.249999999995378 0  40 1.666666666662558 0  40 2.083333333329739 0  40 2.499999999996919 0  40 2.916666666664099 0  40 3.33333333333128 0  40 3.74999999999846 0  40 4.166666666665641 0  40 4.583333333332821 0  39.58333333333628 5 0  39.16666666667256 5 0  38.75000000000885 5 0  38.33333333334513 5 0  37.91666666668141 5 0  37.50000000001769 5 0  37.08333333335398 5 0  36.66666666669025 5 0  36.25000000002654 5 0  35.83333333336282 5 0  35.41666666669911 5 0  35.00000000003539 5 0  34.58333333337167 5 0  34.16666666670795 5 0  33.75000000004424 5 0  33.33333333338052 5 0  32.9166666667168 5 0  32.50000000005308 5 0  32.08333333338936 5 0  31.66666666671408 5 0  31.25000000003556 5 0  30.83333333335704 5 0  30.41666666667852 5 0  29.59259259259259 5 0  29.18518518518519 5 0  28.77777777777778 5 0  28.37037037037037 5 0  27.96296296296296 5 0  27.55555555555556 5 0  27.14814814814815 5 0  26.74074074074074 5 0  26.33333333333333 5 0  25.92592592592593 5 0  25.51851851851852 5 0  25.11111111111111 5 0  24.7037037037037 5 0  24.2962962962963 5 0  23.88888888888889 5 0  23.48148148148148 5 0  23.07407407407408 5 0  22.66666666666667 5 0  22.25925925925926 5 0  21.85185185185185 5 0  21.44444444444445 5 0  21.03703703703704 5 0  20.62962962962963 5 0  20.22222222222222 5 0  19.81481481481482 5 0  19.40740740740741 5 0  19 5 0  18.5925925925926 5 0  18.18518518518519 5 0  17.77777777777778 5 0  17.37037037037037 5 0  16.96296296296296 5 0  16.55555555555556 5 0  16.14814814814815 5 0  15.74074074074074 5 0  15.33333333333333 5 0  14.92592592592593 5 0  14.51851851851852 5 0  14.11111111111111 5 0  13.70370370370371 5 0  13.2962962962963 5 0  12.88888888888889 5 0  12.48148148148148 5 0  12.07407407407408 5 0  11.66666666666667 5 0  11.25925925925926 5 0  10.85185185185185 5 0  10.44444444444445 5 0  10.03703703703704 5 0  9.629629629629633 5 0  9.222222222222221 5 0  8.814814814814817 5 0  8.407407407407408 5 0  7.5789473684193 5 0  7.157894736838599 5 0  6.73684210526082 5 0  6.315789473684795 5 0  5.894736842108769 5 0  5.473684210532742 5 0  5.052631578956715 5 0  4.631578947380689 5 0  4.210526315804662 5 0  3.789473684226299 5 0  3.368421052645599 5 0  2.947368421064898 5 0  2.526315789484198 5 0  2.105263157903499 5 0  1.6842105263228 5 0  1.2631578947421 5 0  0.8421052631613994 5 0  0.4210526315806993 5 0  0 4.545454545454545 0  0 4.09090909090909 0  0 3.636363636363634 0  0 3.18181818181818 0  0 2.727272727272726 0  0 2.272727272727271 0  0 1.818181818181817 0  0 1.363636363636363 0  0 0.9090909090909092 0  0 0.454545454545455 0  0 -0.4545454545450807 0  0 -0.9090909090895867 0  0 -1.363636363633713 0  0 -1.818181818177841 0  0 -2.272727272723127 0  0 -2.727272727269273 0  0 -3.181818181815419 0  0 -3.636363636361564 0  0 -4.090909090907709 0  0 -4.545454545453855 0  8 -4.499999999999999 0  8 -3.999999999999999 0  8 -3.499999999999999 0  8 -3 0  8.137254901963859 -2.5 0  8.274509803926303 -2.5 0  8.411764705886863 -2.5 0  8.549019607849138 -2.5 0  8.686274509809513 -2.5 0  8.82352941176989 -2.5 0  8.960784313730265 -2.5 0  9.098039215690642 -2.5 0  9.235294117651017 -2.5 0  9.372549019611395 -2.5 0  9.50980392157177 -2.5 0  9.647058823532147 -2.5 0  9.784313725492522 -2.5 0  9.921568627452897 -2.5 0  10.05882352941327 -2.5 0  10.19607843137365 -2.5 0  10.33333333333402 -2.5 0  10.4705882352944 -2.5 0  10.60784313725478 -2.5 0  10.74509803921515 -2.5 0  10.88235294117553 -2.5 0  11.0196078431359 -2.5 0  11.15686274509628 -2.5 0  11.29411764705665 -2.5 0  11.43137254901703 -2.5 0  11.56862745097915 -2.5 0  11.70588235294301 -2.5 0  11.84313725490686 -2.5 0  11.98039215687072 -2.5 0  12.11764705883209 -2.5 0  12.25490196079247 -2.5 0  12.39215686275285 -2.5 0  12.52941176471322 -2.5 0  12.6666666666736 -2.5 0  12.80392156863397 -2.5 0  12.94117647059435 -2.5 0  13.07843137255473 -2.5 0  13.2156862745151 -2.5 0  13.35294117647548 -2.5 0  13.49019607843586 -2.5 0  13.62745098039623 -2.5 0  13.76470588235661 -2.5 0  13.90196078431699 -2.5 0  14.03921568627736 -2.5 0  14.17647058823774 -2.5 0  14.31372549019812 -2.5 0  14.45098039215849 -2.5 0  14.58823529411887 -2.5 0  14.72549019607925 -2.5 0  14.86274509803962 -2.5 0  15.20270270270254 -2.5 0  15.40540540540509 -2.5 0  15.60810810810763 -2.5 0  15.81081081081017 -2.5 0  16.01351351351227 -2.5 0  16.21621621621265 -2.5 0  16.41891891891279 -2.5 0  16.62162162161294 -2.5 0  16.82432432431308 -2.5 0  17.02702702701322 -2.5 0  17.22972972971337 -2.5 0  17.43243243241351 -2.5 0  17.63513513511365 -2.5 0  17.83783783781379 -2.5 0  18.04054054051394 -2.5 0  18.24324324321408 -2.5 0  18.44594594591422 -2.5 0  18.64864864861436 -2.5 0  18.85135135131451 -2.5 0  19.05405405401465 -2.5 0  19.25675675671479 -2.5 0  19.45945945941494 -2.5 0  19.66216216211508 -2.5 0  19.86486486481522 -2.5 0  20.06756756751536 -2.5 0  20.27027027021551 -2.5 0  20.47297297291565 -2.5 0  20.6756756756158 -2.5 0  20.87837837831594 -2.5 0  21.08108108101608 -2.5 0  21.28378378371622 -2.5 0  21.48648648641637 -2.5 0  21.68918918911651 -2.5 0  21.89189189181666 -2.5 0  22.0945945945168 -2.5 0  22.29729729721694 -2.5 0  22.49999999991778 -2.5 0  22.70270270262203 -2.5 0  22.90540540532697 -2.5 0  23.10810810803191 -2.5 0  23.31081081073686 -2.5 0  23.5135135134418 -2.5 0  23.71621621614674 -2.5 0  23.91891891885169 -2.5 0  24.12162162155663 -2.5 0  24.32432432426158 -2.5 0  24.52702702696652 -2.5 0  24.72972972967146 -2.5 0  24.93243243237641 -2.5 0  25.13513513508135 -2.5 0  25.3378378377863 -2.5 0  25.54054054049124 -2.5 0  25.74324324319618 -2.5 0  25.94594594590112 -2.5 0  26.14864864860607 -2.5 0  26.35135135131101 -2.5 0  26.55405405401596 -2.5 0  26.7567567567209 -2.5 0  26.95945945942584 -2.5 0  27.16216216213079 -2.5 0  27.36486486483573 -2.5 0  27.56756756754068 -2.5 0  27.77027027024562 -2.5 0  27.97297297295056 -2.5 0  28.1756756756555 -2.5 0  28.37837837836045 -2.5 0  28.5810810810654 -2.5 0  28.78378378377034 -2.5 0  28.98648648647528 -2.5 0  29.18918918918023 -2.5 0  29.39189189188517 -2.5 0  29.59459459459011 -2.5 0  29.79729729729506 -2.5 0  30 -3.000000000000001 0  30 -3.500000000000001 0  30 -4.000000000000001 0  30 -4.5 0  8 4.499999999999999 0  8 3.999999999999999 0  8 3.499999999999999 0  8 3 0  8.137254901963859 2.5 0  8.274509803926303 2.5 0  8.411764705886863 2.5 0  8.549019607849138 2.5 0  8.686274509809513 2.5 0  8.82352941176989 2.5 0  8.960784313730265 2.5 0  9.098039215690642 2.5 0  9.235294117651017 2.5 0  9.372549019611395 2.5 0  9.50980392157177 2.5 0  9.647058823532147 2.5 0  9.784313725492522 2.5 0  9.921568627452897 2.5 0  10.05882352941327 2.5 0  10.19607843137365 2.5 0  10.33333333333402 2.5 0  10.4705882352944 2.5 0  10.60784313725478 2.5 0  10.74509803921515 2.5 0  10.88235294117553 2.5 0  11.0196078431359 2.5 0  11.15686274509628 2.5 0  11.29411764705665 2.5 0  11.43137254901703 2.5 0  11.56862745097915 2.5 0  11.70588235294301 2.5 0  11.84313725490686 2.5 0  11.98039215687072 2.5 0  12.11764705883209 2.5 0  12.25490196079247 2.5 0  1
[...]
<PointData  Vectors="f_17"> 
<DataArray  type="Float64"  Name="f_17"  NumberOfComponents="3" format="ascii">1.0000001295088781e+00 0.0000000000000000e+00 0.0000000000000000e+00  1.0395782428789437e+00 0.0000000000000000e+00 0.0000000000000000e+00  1.0525551865406459e+00 0.0000000000000000e+00 0.0000000000000000e+00  1.0764426548454853e+00 0.0000000000000000e+00 0.0000000000000000e+00  1.0909218911904826e+00 0.0000000000000000e+00 0.0000000000000000e+00  1.0617800270664246e+00 0.0000000000000000e+00 0.0000000000000000e+00  1.0413588731324308e+00 0.0000000000000000e+00 0.0000000000000000e+00  1.0000001295088781e+00 0.0000000000000000e+00 0.0000000000000000e+00  1.0176517744951512e+00 -5.0556659831950575e-02 0.0000000000000000e+00  9.8638668966141696e-01 7.3823562390466849e-03 0.0000000000000000e+00  1.0049323771981200e+00 5.4714449363695405e-02 0.0000000000000000e+00  1.1410860589235114e+00 6.3321075059607212e-02 0.0000000000000000e+00  1.1296076653242406e+00 -5.0630892083429073e-02 0.0000000000000000e+00  1.0251469782530407e+00 5.1132131137900563e-02 0.0000000000000000e+00  0.0000000000000000e+00 0.0000000000000000e+00 0.0000000000000000e+00  0.0000000000000000e+00 0.0000000000000000e+00 0.0000000000000000e+00  1.0000001295088781e+00 0.0000000000000000e+00 0.0000000000000000e+00  9.9928240617254294e-01 0.0000000000000000e+00 0.0000000000000000e+00  9.9866439015642772e-01 0.0000000000000000e+00 0.0000000000000000e+00  1.0006398089901416e+00 0.0000000000000000e+00 0.0000000000000000e+00  1.0003224734724132e+00 0.0000000000000000e+00 0.0000000000000000e+00  1.0011320204672063e+00 0.0000000000000000e+00 0.0000000000000000e+00  1.0012645872803130e+00 0.0000000000000000e+00 0.0000000000000000e+00  1.0013845750615282e+00 0.0000000000000000e+00 0.0000000000000000e+00  1.0020551246692735e+00 0.0000000000000000e+00 0.0000000000000000e+00  1.0031221103633114e+00 0.0000000000000000e+00 0.0000000000000000e+00  1.0041451507861583e+00 0.0000000000000000e+00 0.0000000000000000e+00  1.0054912017452018e+00 0.0000000000000000e+00 0.0000000000000000e+00  1.0076467496928314e+00 0.0000000000000000e+00 0.0000000000000000e+00  1.0098798257476234e+00 0.0000000000000000e+00 0.0000000000000000e+00  1.0136660373726740e+00 0.0000000000000000e+00 0.0000000000000000e+00  1.0152514500037912e+00 0.0000000000000000e+00 0.0000000000000000e+00  1.0196379754725349e+00 0.0000000000000000e+00 0.0000000000000000e+00  1.0262419095230877e+00 0.0000000000000000e+00 0.0000000000000000e+00  1.0315866716033084e+00 0.0000000000000000e+00 0.0000000000000000e+00  1.0477704967627930e+00 0.0000000000000000e+00 0.0000000000000000e+00  1.0565762811347590e+00 0.0000000000000000e+00 0.0000000000000000e+00  1.0650185551032827e+00 0.0000000000000000e+00 0.0000000000000000e+00  1.0741032638197416e+00 0.0000000000000000e+00 0.0000000000000000e+00  1.0817112334465551e+00 0.0000000000000000e+00 0.0000000000000000e+00  1.0884995165609808e+00 0.0000000000000000e+00 0.0000000000000000e+00  1.0944560521051305e+00 0.0000000000000000e+00 0.0000000000000000e+00  1.0971531184699121e+00 0.0000000000000000e+00 0.0000000000000000e+00  1.0981423850355332e+00 0.0000000000000000e+00 0.0000000000000000e+00  1.0964630261241080e+00 0.0000000000000000e+00 0.0000000000000000e+00  1.0929215009258373e+00 0.0000000000000000e+00 0.0000000000000000e+00  1.0865364854076567e+00 0.0000000000000000e+00 0.0000000000000000e+00  1.0801209591052296e+00 0.0000000000000000e+00 0.0000000000000000e+00  1.0731751759060912e+00 0.0000000000000000e+00 0.0000000000000000e+00  1.0667701947110111e+00 0.0000000000000000e+00 0.0000000000000000e+00  1.0621568999889008e+00 0.0000000000000000e+00 0.0000000000000000e+00  1.0593680281045630e+00 0.0000000000000000e+00 0.0000000000000000e+00  1.0587947491352603e+00 0.0000000000000000e+00 0.0000000000000000e+00  1.0597028546985230e+00 0.0000000000000000e+00 0.0000000000000000e+00  1.0613729019712843e+00 0.0000000000000000e+00 0.0000000000000000e+00  1.0642912374000855e+00 0.0000000000000000e+00 0.0000000000000000e+00  1.0665610898055022e+00 0.0000000000000000e+00 0.0000000000000000e+00  1.0658869174871310e+00 0.0000000000000000e+00 0.0000000000000000e+00  1.0638703200841397e+00 0.0000000000000000e+00 0.0000000000000000e+00  1.0597303184966820e+00 0.0000000000000000e+00 0.0000000000000000e+00  1.0542006237462878e+00 0.0000000000000000e+00 0.0000000000000000e+00  1.0487465992752063e+00 0.0000000000000000e+00 0.0000000000000000e+00  1.0435639667196164e+00 0.0000000000000000e+00 0.0000000000000000e+00  1.0401092591354422e+00 0.0000000000000000e+00 0.0000000000000000e+00  1.0392642885176417e+00 0.0000000000000000e+00 0.0000000000000000e+00  1.0401666101544877e+00 0.0000000000000000e+00 0.0000000000000000e+00  1.0430999152165472e+00 0.0000000000000000e+00 0.0000000000000000e+00  1.0491267970444680e+00 0.0000000000000000e+00 0.0000000000000000e+00  1.0544883540528509e+00 0.0000000000000000e+00 0.0000000000000000e+00  1.0589112269538985e+00 0.0000000000000000e+00 0.0000000000000000e+00  1.0625732591850174e+00 0.0000000000000000e+00 0.0000000000000000e+00  1.0630444888103001e+00 0.0000000000000000e+00 0.0000000000000000e+00  1.0609729556074443e+00 0.0000000000000000e+00 0.0000000000000000e+00  1.0584850927058902e+00 0.0000000000000000e+00 0.0000000000000000e+00  1.0542217811530794e+00 0.0000000000000000e+00 0.0000000000000000e+00  1.0500015591698422e+00 0.0000000000000000e+00 0.0000000000000000e+00  1.0477053753899652e+00 0.0000000000000000e+00 0.0000000000000000e+00  1.0464937688228733e+00 0.0000000000000000e+00 0.0000000000000000e+00  1.0473331045165035e+00 0.0000000000000000e+00 0.0000000000000000e+00  1.0507163567920872e+00 0.0000000000000000e+00 0.0000000000000000e+00  1.0544190945025087e+00 0.0000000000000000e+00 0.0000000000000000e+00  1.0581049745567748e+00 0.0000000000000000e+00 0.0000000000000000e+00  1.0637037792372548e+00 0.0000000000000000e+00 0.0000000000000000e+00  1.0656966428334314e+00 0.0000000000000000e+00 0.0000000000000000e+00  1.0640768842761510e+00 0.0000000000000000e+00 0.0000000000000000e+00  1.0615324792939438e+00 0.0000000000000000e+00 0.0000000000000000e+00  1.0592380056173252e+00 0.0000000000000000e+00 0.0000000000000000e+00  1.0553499384236531e+00 0.0000000000000000e+00 0.0000000000000000e+00  1.0506087556216337e+00 0.0000000000000000e+00 0.0000000000000000e+00  1.0498158864412845e+00 0.0000000000000000e+00 0.0000000000000000e+00  1.0510070377543970e+00 0.0000000000000000e+00 0.0000000000000000e+00  1.0545020688709685e+00 0.0000000000000000e+00 0.0000000000000000e+00  1.0589723579614507e+00 0.0000000000000000e+00 0.0000000000000000e+00  1.0626886819063894e+00 0.0000000000000000e+00 0.0000000000000000e+00  1.0654562129201544e+00 0.0000000000000000e+00 0.0000000000000000e+00  1.0667118921343073e+00 0.0000000000000000e+00 0.0000000000000000e+00  1.0661928351380112e+00 0.0000000000000000e+00 0.0000000000000000e+00  1.0635863795619072e+00 0.0000000000000000e+00 0.0000000000000000e+00  1.0606000355988594e+00 0.0000000000000000e+00 0.0000000000000000e+00  1.0575453116486926e+00 0.0000000000000000e+00 0.0000000000000000e+00  1.0552594161757278e+00 0.0000000000000000e+00 0.0000000000000000e+00  1.0552588385533961e+00 0.0000000000000000e+00 0.0000000000000000e+00  1.0572326639886365e+00 0.0000000000000000e+00 0.0000000000000000e+00  1.0615850635744626e+00 0.0000000000000000e+00 0.0000000000000000e+00  1.0662083046652868e+00 0.0000000000000000e+00 0.0000000000000000e+00  1.0715739851052408e+00 0.0000000000000000e+00 0.0000000000000000e+00  1.0757866083376633e+00 0.0000000000000000e+00 0.0000000000000000e+00  1.0791729062683786e+00 0.0000000000000000e+00 0.0000000000000000e+00  1.0800123387071328e+00 0.0000000000000000e+00 0.0000000000000000e+00  1.0798293908063614e+00 0.0000000000000000e+00 0.0000000000000000e+00  1.0777639894777347e+00 0.0000000000000000e+00 0.0000000000000000e+00  1.0767422686429320e+00 1.6835687133405512e-03 0.0000000000000000e+00  1.0767117967093749e+00 4.1736733103676562e-03 0.0000000000000000e+00  1.0758439087075158e+00 8.6777769100558448e-03 0.0000000000000000e+00  1.0714942860908303e+00 1.7059949429630506e-02 0.0000000000000000e+00  1.0643008566948797e+00 3.1563420916917544e-02 0.0000000000000000e+00  1.0486348602282922e+00 5.5011159807970604e-02 0.0000000000000000e+00  1.0187880975197110e+00 8.7340264931584977e-02 0.0000000000000000e+00  9.6935696428865981e-01 1.2526161355011137e-01 0.0000000000000000e+00  9.0082671147910520e-01 1.6264548631340886e-01 0.0000000000000000e+00  8.2488897871369193e-01 1.9096136215484935e-01 0.0000000000000000e+00  7.6026575230079751e-01 2.1485727237951491e-01 0.0000000000000000e+00  7.2741338443410564e-01 2.3438900422490985e-01 0.0000000000000000e+00  7.4809676887895604e-01 2.5742924249076593e-01 0.0000000000000000e+00  8.2623823058198886e-01 2.7786667027738249e-01 0.0000000000000000e+00  9.3908238417048040e-01 2.8459242454906086e-01 0.0000000000000000e+00  1.0462128510702131e+00 2.5556280949392252e-01 0.0000000000000000e+00  1.1102164646551274e+00 2.0099532916854013e-01 0.0000000000000000e+00  1.1256548182121486e+00 1.4044830246196535e-01 0.0000000000000000e+00  1.1155505737387019e+00 9.0687468811168487e-02 0.0000000000000000e+00  1.1048658247824177e+00 5.5249332410319367e-02 0.0000000000000000e+00  1.0983545919612208e+00 3.3577777646175429e-02 0.0000000000000000e+00  1.0949803828204228e+00 1.9342627013138426e-02 0.0000000000000000e+00  1.0922832816504420e+00 8.6868185913838401e-03 0.0000000000000000e+00  1.0821436492275038e+00 0.0000000000000000e+00 0.0000000000000000e+00  1.0740292533853757e+00 0.0000000000000000e+00 0.0000000000000000e+00  1.0675138512541607e+00 0.0000000000000000e+00 0.0000000000000000e+00  1.0639468090561988e+00 0.0000000000000000e+00 0.0000000000000000e+00  1.0622664781023616e+00 0.0000000000000000e+00 0.0000000000000000e+00  1.0631170383359383e+00 0.0000000000000000e+00 0.0000000000000000e+00  1.0653096889914606e+00 0.0000000000000000e+00 0.0000000000000000e+00  1.0680021294912112e+00 0.0000000000000000e+00 0.0000000000000000e+00  1.0691678359157173e+00 0.0000000000000000e+00 0.0000000000000000e+00  1.0692945792714130e+00 0.0000000000000000e+00 0.0000000000000000e+00  1.0674236358584137e+00 0.0000000000000000e+00 0.0000000000000000e+00  1.0639152395789513e+00 0.0000000000000000e+00 0.0000000000000000e+00  1.0594363360564445e+00 0.0000000000000000e+00 0.0000000000000000e+00  1.0557246612212341e+00 0.0000000000000000e+00 0.0000000000000000e+00  1.0520781862144695e+00 0.0000000000000000e+00 0.0000000000000000e+00  1.0511854516263885e+00 0.0000000000000000e+00 0.0000000000000000e+00  1.0509833166172184e+00 0.0000000000000000e+00 0.0000000000000000e+00  1.0532222982405983e+00 0.0000000000000000e+00 0.0000000000000000e+00  1.0564302387657822e+00 0.0000000000000000e+00 0.0000000000000000e+00  1.0605598752974918e+00 0.0000000000000000e+00 0.0000000000000000e+00  1.0635565460518877e+00 0.0000000000000000e+00 0.0000000000000000e+00  1.0646611537708264e+00 0.0000000000000000e+00 0.0000000000000000e+00  1.0642838408297104e+00 0.0000000000000000e+00 0.0000000000000000e+00  1.0575176668752282e+00 0.0000000000000000e+00 0.0000000000000000e+00  1.0534518816175107e+00 0.0000000000000000e+00 0.0000000000000000e+00  1.0490511497611332e+00 0.0000000000000000e+00 0.0000000000000000e+00  1.0474977078747978e+00 0.0000000000000000e+00 0.0000000000000000e+00  1.0486717230666132e+00 0.0000000000000000e+00 0.0000000000000000e+00  1.0505881680550546e+00 0.0000000000000000e+00 0.0000000000000000e+00  1.0522000716567639e+00 0.0000000000000000e+00 0.0000000000000000e+00  1.0567760979456331e+00 0.0000000000000000e+00 0.0000000000000000e+00  1.0610037629607765e+00 0.0000000000000000e+00 0.0000000000000000e+00  1.0631929358719330e+00 0.0000000000000000e+00 0.0000000000000000e+00  1.0639584021474109e+00 0.0000000000000000e+00 0.0000000000000000e+00  1.0624150429523511e+00 0.0000000000000000e+00 0.0000000000000000e+00  1.0581865488098530e+00 0.0000000000000000e+00 0.0000000000000000e+00  1.0535710684248019e+00 0.0000000000000000e+00 0.0000000000000000e+00  1.0486590096337254e+00 0.0000000000000000e+00 0.0000000000000000e+00  1.0437754765430880e+00 0.0000000000000000e+00 0.0000000000000000e+00  1.0419770779738089e+00 0.0000000000000000e+00 0.0000000000000000e+00  1.0423153846119195e+00 0.0000000000000000e+00 0.0000000000000000e+00  1.0439366829745274e+00 0.0000000000000000e+00 0.0000000000000000e+00  1.0482135763356661e+00 0.0000000000000000e+00 0.0000000000000000e+00  1.0531668011366671e+00 0.0000000000000000e+00 0.0000000000000000e+00  1.0568824510775396e+00 0.0000000000000000e+00 0.0000000000000000e+00  1.0606263053887615e+00 0.0000000000000000e+00 0.0000000000000000e+00  1.0622326738706418e+00 0.0000000000000000e+00 0.0000000000000000e+00  1.0605104663161165e+00 0.0000000000000000e+00 0.0000000000000000e+00  1.0570516837955142e+00 0.0000000000000000e+00 0.0000000000000000e+00  1.0522281354414864e+00 0.0000000000000000e+00 0.0000000000000000e+00  1.0467762109331276e+00 0.0000000000000000e+00 0.0000000000000000e+00  1.0426426133019711e+00 0.0000000000000000e+00 0.0000000000000000e+00  1.0403983092806952e+00 0.0000000000000000e+00 0.0000000000000000e+00  1.0402853785212718e+00 0.0000000000000000e+00 0.0000000000000000e+00  1.0434495874233023e+00 0.0000000000000000e+00 0.0000000000000000e+00  1.0475696827615819e+00 0.0000000000000000e+00 0.0000000000000000e+00  1.0536114487941786e+00 0.0000000000000000e+00 0.0000000000000000e+00  1.0609979797151856e+00 0.0000000000000000e+00 0.0000000000000000e+00  1.0680509967487612e+00 0.0000000000000000e+00 0.0000000000000000e+00  1.0736609924879781e+00 0.0000000000000000e+00 0.0000000000000000e+00  1.0775079218088583e+00 0.0000000000000000e+00 0.0000000000000000e+00  1.0803840360052672e+00 0.0000000000000000e+00 0.0000000000000000e+00  1.0828810114814644e+00 0.0000000000000000e+00 0.0000000000000000e+00  1.0838387689738993e+00 0.0000000000000000e+00 0.0000000000000000e+00  1.0843069001981385e+00 0.0000000000000000e+00 0.0000000000000000e+00  1.0860567572699269e+00 0.0000000000000000e+00 0.0000000000000000e+00  1.0860593198173962e+00 0.0000000000000000e+00 0.0000000000000000e+00  1.0865911141846680e+00 0.0000000000000000e+00 0.0000000000000000e+00  1.0860840342537492e+00 0.0000000000000000e+00 0.0000000000000000e+00  1.0838458919878657e+00 0.0000000000000000e+00 0.0000000000000000e+00  1.0804854831228010e+00 0.0000000000000000e+00 0.0000000000000000e+00  1.0761193577963064e+00 0.0000000000000000e+00 0.0000000000000000e+00  1.0705356181790275e+00 0.0000000000000000e+00 0.0000000000000000e+00  1.0633361132358630e+00 0.0000000000000000e+00 0.0000000000000000e+00  1.0565396297156759e+00 0.0000000000000000e+00 0.0000000000000000e+00  1.0488698896236470e+00 0.0000000000000000e+00 0.0000000000000000e+00  1.0339603528756580e+00 0.0000000000000000e+00 0.0000000000000000e+00  1.0274257856676667e+00 0.0000000000000000e+00 0.0000000000000000e+00  1.0222113397983683e+00 0.0000000000000000e+00 0.0000000000000000e+00  1.0174956782925095e+00 0.0000000000000000e+00 0.0000000000000000e+00  1.0136501863610001e+00 0.0000000000000000e+00 0.0000000000000000e+00  1.0106098895505382e+00 0.0000000000000000e+00 0.0000000000000000e+00  1.0082961221629996e+00 0.0000000000000000e+00 0.0000000000000000e+00  1.0060681138132042e+00 0.0000000000000000e+00 0.0000000000000000e+00  1.0045017260211704e+00 0.0000000000000000e+00 0.0000000000000000e+00  1.0034096995677597e+00 0.0000000000000000e+00 0.0000000000000000e+00  1.0021302834362462e+00 0.0000000000000000e+00 0.0000000000000000e+00  1.0018679531210564e+00 0.0000000000000000e+00 0.0000000000000000e+00  1.0006896667888106e+00 0.0000000000000000e+00 0.0000000000000000e+00  1.0005533121351595e+00 0.0000000000000000e+00 0.0000000000000000e+00  1.0000297721355533e+00 0.0000000000000000e+00 0.0000000000000000e+00  1.0006141369095189e+00 0.0000000000000000e+00 0.0000000000000000e+00  1.0002987291387249e+00 0.0000000000000000e+00 0.0000000000000000e+00  9.9980460901681478e-01 0.0000000000000000e+00 0.0000000000000000e+00  1.0000001295088781e+00 0.0000000000000000e+00 0.0000000000000000e+00  1.0000001295088781e+00 0.0000000000000000e+00 0.0000000000000000e+00  1.0000001295088781e+00 0.0000000000000000e+00 0.0000000000000000e+00  1.0000001295088781e+00 0.0000000000000000e+00 0.0000000000000000e+00  1.0000001295088781e+00 0.0000000000000000e+00 0.0000000000000000e+00  1.0000001295088781e+00 0.0000000000000000e+00 0.0000000000000000e+00  1.0000001295088781e+00 0.0000000000000000e+00 0.0000000000000000e+00  1.0000001295088781e+00 0.0000000000000000e+00 0.0000000000000000e+00  1.0000001295088781e+00 0.0000000000000000e+00 0.0000000000000000e+00  1.0000001295088781e+00 0.0000000000000000e+00 0.0000000000000000e+00  1.0000001295088781e+00 0.0000000000000000e+00 0.0000000000000000e+00  1.0000001295088781e+00 0.0000000000000000e+00 0.0000000000000000e+00  1.0000001295088781e+00 0.0000000000000000e+00 0.0000000000000000e+00  1.0000001295088781e+00 0.0000000000000000e+00 0.0000000000000000e+00  1.0000001295088781e+00 0.0000000000000000e+00 0.0000000000000000e+00  1.0000001295088781e+00 0.0000000000000000e+00 0.0000000000000000e+00  1.0000001295088781e+00 0.0000000000000000e+00 0.0000000000000000e+00  1.0000001295088781e+00 0.0000000000000000e+00 0.0000000000000000e+00  1.0000001295088781e+00 0.0000000000000000e+00 0.0000000000000000e+00  1.0000001295088781e+00 0.0000000000000000e+00 0.0000000000000000e+00  1.0388999834741623e+00 -9.5038001187582755e-03 0.0000000000000000e+00  1.0356613554863514e+00 -1.9148292607681631e-02 0.0000000000000000e+00  1.0330428379800565e+00 -2.9376808781237839e-02 0.0000000000000000e+00  1.0267757458111457e+00 -3.9984753476149833e-02 0.0000000000000000e+00  1.0201560803946288e+00 -5.4442622133204159e-02 0.0000000000000000e+00  1.0243551863962383e+00 -5.8026003272150406e-02 0.0000000000000000e+00  1.0282030920807557e+00 -6.1707476864986163e-02 0.0000000000000000e+00  1.0330393352795209e+00 -6.5135363419400447e-02 0.0000000000000000e+00  1.0381555653237147e+00 -6.8447725026206732e-02 0.0000000000000000e+00  1.0438901747321592e+00 -7.1393776943805637e-02 0.0000000000000000e+00  1.0502046269612964e+00 -7.4022214287193827e-02 0.0000000000000000e+00  1.0569669736279892e+00 -7.6045104599831395e-02 0.0000000000000000e+00  1.0642400167490400e+00 -7.7568590949841490e-02 0.0000000000000000e+00  1.0716559927400058e+00 -7.8270266995581261e-02 0.0000000000000000e+00  1.0794033039155189e+00 -7.8377109338699985e-02 0.0000000000000000e+00  1.0872078929634135e+00 -7.7774665685521854e-02 0.0000000000000000e+00  1.0951188648849293e+00 -7.6180428197345162e-02 0.0000000000000000e+00  1.1027128394792982e+00 -7.3735501950932730e-02 0.0000000000000000e+00  1.1100692613411915e+00 -7.0663230815473460e-02 0.0000000000000000e+00  1.1170600322052600e+00 -6.6862476331456089e-02 0.0000000000000000e+00  1.1235217844928957e+00 -6.2412992542835881e-02 0.0000000000000000e+00  1.1294589336408318e+00 -5.7412452066732067e-02 0.0000000000000000e+00  1.1348635977636530e+00 -5.2007140512552272e-02 0.0000000000000000e+00  1.1397143894154786e+00 -4.6071104545851740e-02 0.0000000000000000e+00  1.1440232606306622e+00 -3.9974095623678908e-02 0.0000000000000000e+00  1.1477959072902360e+00 -3.3381908398039582e-02 0.0000000000000000e+00  1.1509636122780313e+00 -2.6482713043472651e-02 0.0000000000000000e+00  1.1536847535380332e+00 -1.9343381200466570e-02 0.0000000000000000e+00  1.1557471550274157e+00 -1.1911346134461407e-02 0.0000000000000000e+00  1.1571843639117823e+00 -4.1371074330407110e-03 0.0000000000000000e+00  1.1578897856425072e+00 3.9675670277653377e-03 0.0000000000000000e+00  1.1577682916293655e+00 1.2297660055217582e-02 0.0000000000000000e+00  1.1567581682230215e+00 2.0925529813822005e-02 0.0000000000000000e+00  1.1547170201230146e+00 2.9721203948822581e-02 0.0000000000000000e+00  1.1515727675813348e+00 3.8488977784523509e-02 0.0000000000000000e+00  1.1472757414894250e+00 4.7102955456079211e-02 0.00