<?xml version="1.0"?>
<VTKFile type="UnstructuredGrid"  version="0.1"  >
<UnstructuredGrid>
<Piece  NumberOfPoints="10199" NumberOfCells="20110">
<Points>
<DataArray  type="Float64"  NumberOfComponents="3"  format="ascii">0 -5 0  8 -5 0  30 -5 0  40 -5 0  40 5 0  30 5 0  8 5 0  0 5 0  8 -2.5 0  15 -2.5 0  30 -2.5 0  30 2.5 0  15 2.5 0  8 2.5 0  10 0.5 0  10 -0.5 0  0 0 0  0.4210526315780956 -5 0  0.8421052631563433 -5 0  1.263157894734281 -5 0  1.684210526311999 -5 0  2.105263157889717 -5 0  2.526315789467435 -5 0  2.947368421045153 -5 0  3.368421052622872 -5 0  3.78947368420059 -5 0  4.210526315779479 -5 0  4.631578947359537 -5 0  5.052631578939595 -5 0  5.473684210519653 -5 0  5.89473684209971 -5 0  6.315789473679768 -5 0  6.736842105259826 -5 0  7.157894736839884 -5 0  7.578947368419942 -5 0  8.407407407405314 -5 0  8.814814814810628 -5 0  9.222222222215942 -5 0  9.629629629621256 -5 0  10.03703703702657 -5 0  10.44444444443188 -5 0  10.8518518518372 -5 0  11.25925925924251 -5 0  11.66666666664783 -5 0  12.07407407405314 -5 0  12.48148148145846 -5 0  12.88888888886377 -5 0  13.29629629626908 -5 0  13.7037037036744 -5 0  14.11111111107971 -5 0  14.51851851848502 -5 0  14.92592592589034 -5 0  15.33333333329565 -5 0  15.74074074070096 -5 0  16.14814814810754 -5 0  16.55555555551614 -5 0  16.96296296292474 -5 0  17.37037037033335 -5 0  17.77777777774195 -5 0  18.18518518515056 -5 0  18.59259259255916 -5 0  18.99999999996776 -5 0  19.40740740737636 -5 0  19.81481481478497 -5 0  20.22222222219357 -5 0  20.62962962960217 -5 0  21.03703703701077 -5 0  21.44444444441937 -5 0  21.85185185182797 -5 0  22.25925925923657 -5 0  22.66666666664518 -5 0  23.07407407405378 -5 0  23.48148148146238 -5 0  23.88888888887098 -5 0  24.29629629627958 -5 0  24.70370370368818 -5 0  25.11111111109678 -5 0  25.51851851850539 -5 0  25.92592592591399 -5 0  26.33333333332259 -5 0  26.74074074073119 -5 0  27.14814814813979 -5 0  27.55555555554839 -5 0  27.96296296295699 -5 0  28.3703703703656 -5 0  28.7777777777742 -5 0  29.1851851851828 -5 0  29.5925925925914 -5 0  30.41666666667852 -5 0  30.83333333335704 -5 0  31.25000000003556 -5 0  31.66666666671408 -5 0  32.08333333338936 -5 0  32.50000000005308 -5 0  32.9166666667168 -5 0  33.33333333338052 -5 0  33.75000000004424 -5 0  34.16666666670795 -5 0  34.58333333337167 -5 0  35.00000000003539 -5 0  35.41666666669911 -5 0  35.83333333336282 -5 0  36.25000000002654 -5 0  36.66666666669026 -5 0  37.08333333335398 -5 0  37.50000000001769 -5 0  37.91666666668141 -5 0  38.33333333334513 -5 0  38.75000000000885 -5 0  39.16666666667257 -5 0  39.58333333333628 -5 0  40 -4.583333333332821 0  40 -4.166666666665642 0  40 -3.74999999999855 0  40 -3.333333333333135 0  40 -2.916666666667806 0  40 -2.500000000002478 0  40 -2.083333333337148 0  40 -1.666666666671818 0  40 -1.250000000006488 0  40 -0.8333333333405228 0  40 -0.4166666666733416 0  40 -6.163070054299169e-12 0  40 0.4166666666610173 0  40 0.8333333333281976 0  40 1.249999999995378 0  40 1.666666666662558 0  40 2.083333333329739 0  40 2.499999999996919 0  40 2.916666666664099 0  40 3.33333333333128 0  40 3.74999999999846 0  40 4.166666666665641 0  40 4.583333333332821 0  39.58333333333628 5 0  39.16666666667256 5 0  38.75000000000885 5 0  38.33333333334513 5 0  37.91666666668141 5 0  37.50000000001769 5 0  37.08333333335398 5 0  36.66666666669025 5 0  36.25000000002654 5 0  35.83333333336282 5 0  35.41666666669911 5 0  35.00000000003539 5 0  34.58333333337167 5 0  34.16666666670795 5 0  33.75000000004424 5 0  33.33333333338052 5 0  32.9166666667168 5 0  32.50000000005308 5 0  32.08333333338936 5 0  31.66666666671408 5 0  31.25000000003556 5 0  30.83333333335704 5 0  30.41666666667852 5 0  29.59259259259259 5 0  29.18518518518519 5 0  28.77777777777778 5 0  28.37037037037037 5 0  27.96296296296296 5 0  27.55555555555556 5 0  27.14814814814815 5 0  26.74074074074074 5 0  26.33333333333333 5 0  25.92592592592593 5 0  25.51851851851852 5 0  25.11111111111111 5 0  24.7037037037037 5 0  24.2962962962963 5 0  23.88888888888889 5 0  23.48148148148148 5 0  23.07407407407408 5 0  22.66666666666667 5 0  22.25925925925926 5 0  21.85185185185185 5 0  21.44444444444445 5 0  21.03703703703704 5 0  20.62962962962963 5 0  20.22222222222222 5 0  19.81481481481482 5 0  19.40740740740741 5 0  19 5 0  18.5925925925926 5 0  18.18518518518519 5 0  17.77777777777778 5 0  17.37037037037037 5 0  16.96296296296296 5 0  16.55555555555556 5 0  16.14814814814815 5 0  15.74074074074074 5 0  15.33333333333333 5 0  14.92592592592593 5 0  14.51851851851852 5 0  14.11111111111111 5 0  13.70370370370371 5 0  13.2962962962963 5 0  12.88888888888889 5 0  12.48148148148148 5 0  12.07407407407408 5 0  11.66666666666667 5 0  11.25925925925926 5 0  10.85185185185185 5 0  10.44444444444445 5 0  10.03703703703704 5 0  9.629629629629633 5 0  9.222222222222221 5 0  8.814814814814817 5 0  8.407407407407408 5 0  7.5789473684193 5 0  7.157894736838599 5 0  6.73684210526082 5 0  6.315789473684795 5 0  5.894736842108769 5 0  5.473684210532742 5 0  5.052631578956715 5 0  4.631578947380689 5 0  4.210526315804662 5 0  3.789473684226299 5 0  3.368421052645599 5 0  2.947368421064898 5 0  2.526315789484198 5 0  2.105263157903499 5 0  1.6842105263228 5 0  1.2631578947421 5 0  0.8421052631613994 5 0  0.4210526315806993 5 0  0 4.545454545454545 0  0 4.09090909090909 0  0 3.636363636363634 0  0 3.18181818181818 0  0 2.727272727272726 0  0 2.272727272727271 0  0 1.818181818181817 0  0 1.363636363636363 0  0 0.9090909090909092 0  0 0.454545454545455 0  0 -0.4545454545450807 0  0 -0.9090909090895867 0  0 -1.363636363633713 0  0 -1.818181818177841 0  0 -2.272727272723127 0  0 -2.727272727269273 0  0 -3.181818181815419 0  0 -3.636363636361564 0  0 -4.090909090907709 0  0 -4.545454545453855 0  8 -4.499999999999999 0  8 -3.999999999999999 0  8 -3.499999999999999 0  8 -3 0  8.137254901963859 -2.5 0  8.274509803926303 -2.5 0  8.411764705886863 -2.5 0  8.549019607849138 -2.5 0  8.686274509809513 -2.5 0  8.82352941176989 -2.5 0  8.960784313730265 -2.5 0  9.098039215690642 -2.5 0  9.235294117651017 -2.5 0  9.372549019611395 -2.5 0  9.50980392157177 -2.5 0  9.647058823532147 -2.5 0  9.784313725492522 -2.5 0  9.921568627452897 -2.5 0  10.05882352941327 -2.5 0  10.19607843137365 -2.5 0  10.33333333333402 -2.5 0  10.4705882352944 -2.5 0  10.60784313725478 -2.5 0  10.74509803921515 -2.5 0  10.88235294117553 -2.5 0  11.0196078431359 -2.5 0  11.15686274509628 -2.5 0  11.29411764705665 -2.5 0  11.43137254901703 -2.5 0  11.56862745097915 -2.5 0  11.70588235294301 -2.5 0  11.84313725490686 -2.5 0  11.98039215687072 -2.5 0  12.11764705883209 -2.5 0  12.25490196079247 -2.5 0  12.39215686275285 -2.5 0  12.52941176471322 -2.5 0  12.6666666666736 -2.5 0  12.80392156863397 -2.5 0  12.94117647059435 -2.5 0  13.07843137255473 -2.5 0  13.2156862745151 -2.5 0  13.35294117647548 -2.5 0  13.49019607843586 -2.5 0  13.62745098039623 -2.5 0  13.76470588235661 -2.5 0  13.90196078431699 -2.5 0  14.03921568627736 -2.5 0  14.17647058823774 -2.5 0  14.31372549019812 -2.5 0  14.45098039215849 -2.5 0  14.58823529411887 -2.5 0  14.72549019607925 -2.5 0  14.86274509803962 -2.5 0  15.20270270270254 -2.5 0  15.40540540540509 -2.5 0  15.60810810810763 -2.5 0  15.81081081081017 -2.5 0  16.01351351351227 -2.5 0  16.21621621621265 -2.5 0  16.41891891891279 -2.5 0  16.62162162161294 -2.5 0  16.82432432431308 -2.5 0  17.02702702701322 -2.5 0  17.22972972971337 -2.5 0  17.43243243241351 -2.5 0  17.63513513511365 -2.5 0  17.83783783781379 -2.5 0  18.04054054051394 -2.5 0  18.24324324321408 -2.5 0  18.44594594591422 -2.5 0  18.64864864861436 -2.5 0  18.85135135131451 -2.5 0  19.05405405401465 -2.5 0  19.25675675671479 -2.5 0  19.45945945941494 -2.5 0  19.66216216211508 -2.5 0  19.86486486481522 -2.5 0  20.06756756751536 -2.5 0  20.27027027021551 -2.5 0  20.47297297291565 -2.5 0  20.6756756756158 -2.5 0  20.87837837831594 -2.5 0  21.08108108101608 -2.5 0  21.28378378371622 -2.5 0  21.48648648641637 -2.5 0  21.68918918911651 -2.5 0  21.89189189181666 -2.5 0  22.0945945945168 -2.5 0  22.29729729721694 -2.5 0  22.49999999991778 -2.5 0  22.70270270262203 -2.5 0  22.90540540532697 -2.5 0  23.10810810803191 -2.5 0  23.31081081073686 -2.5 0  23.5135135134418 -2.5 0  23.71621621614674 -2.5 0  23.91891891885169 -2.5 0  24.12162162155663 -2.5 0  24.32432432426158 -2.5 0  24.52702702696652 -2.5 0  24.72972972967146 -2.5 0  24.93243243237641 -2.5 0  25.13513513508135 -2.5 0  25.3378378377863 -2.5 0  25.54054054049124 -2.5 0  25.74324324319618 -2.5 0  25.94594594590112 -2.5 0  26.14864864860607 -2.5 0  26.35135135131101 -2.5 0  26.55405405401596 -2.5 0  26.7567567567209 -2.5 0  26.95945945942584 -2.5 0  27.16216216213079 -2.5 0  27.36486486483573 -2.5 0  27.56756756754068 -2.5 0  27.77027027024562 -2.5 0  27.97297297295056 -2.5 0  28.1756756756555 -2.5 0  28.37837837836045 -2.5 0  28.5810810810654 -2.5 0  28.78378378377034 -2.5 0  28.98648648647528 -2.5 0  29.18918918918023 -2.5 0  29.39189189188517 -2.5 0  29.59459459459011 -2.5 0  29.79729729729506 -2.5 0  30 -3.000000000000001 0  30 -3.500000000000001 0  30 -4.000000000000001 0  30 -4.5 0  8 4.499999999999999 0  8 3.999999999999999 0  8 3.499999999999999 0  8 3 0  8.137254901963859 2.5 0  8.274509803926303 2.5 0  8.411764705886863 2.5 0  8.549019607849138 2.5 0  8.686274509809513 2.5 0  8.82352941176989 2.5 0  8.960784313730265 2.5 0  9.098039215690642 2.5 0  9.235294117651017 2.5 0  9.372549019611395 2.5 0  9.50980392157177 2.5 0  9.647058823532147 2.5 0  9.784313725492522 2.5 0  9.921568627452897 2.5 0  10.05882352941327 2.5 0  10.19607843137365 2.5 0  10.33333333333402 2.5 0  10.4705882352944 2.5 0  10.60784313725478 2.5 0  10.74509803921515 2.5 0  10.88235294117553 2.5 0  11.0196078431359 2.5 0  11.15686274509628 2.5 0  11.29411764705665 2.5 0  11.43137254901703 2.5 0  11.56862745097915 2.5 0  11.70588235294301 2.5 0  11.84313725490686 2.5 0  11.98039215687072 2.5 0  12.11764705883209 2.5 0  12.25490196079247 2.5 0  1
[...]
<PointData  Vectors="f_17"> 
<DataArray  type="Float64"  Name="f_17"  NumberOfComponents="3" format="ascii">1.0000001297087238e+00 0.0000000000000000e+00 0.0000000000000000e+00  1.0400767888072675e+00 0.0000000000000000e+00 0.0000000000000000e+00  1.0509339034792173e+00 0.0000000000000000e+00 0.0000000000000000e+00  1.0746111048249440e+00 0.0000000000000000e+00 0.0000000000000000e+00  1.0930457133627296e+00 0.0000000000000000e+00 0.0000000000000000e+00  1.0634675035397319e+00 0.0000000000000000e+00 0.0000000000000000e+00  1.0408467228418850e+00 0.0000000000000000e+00 0.0000000000000000e+00  1.0000001297087238e+00 0.0000000000000000e+00 0.0000000000000000e+00  1.0181865951584270e+00 -5.1065303671100779e-02 0.0000000000000000e+00  9.9221134013744705e-01 -1.4453720494114489e-02 0.0000000000000000e+00  9.9335868408775030e-01 3.5343622708704704e-02 0.0000000000000000e+00  1.1531796471579627e+00 3.9092230155496552e-02 0.0000000000000000e+00  1.1154889880181746e+00 -6.8930813435231650e-02 0.0000000000000000e+00  1.0246194735777752e+00 5.0610017856489484e-02 0.0000000000000000e+00  0.0000000000000000e+00 0.0000000000000000e+00 0.0000000000000000e+00  0.0000000000000000e+00 0.0000000000000000e+00 0.0000000000000000e+00  1.0000001297087238e+00 0.0000000000000000e+00 0.0000000000000000e+00  9.9927774498947686e-01 0.0000000000000000e+00 0.0000000000000000e+00  9.9865173567862220e-01 0.0000000000000000e+00 0.0000000000000000e+00  1.0006301569265992e+00 0.0000000000000000e+00 0.0000000000000000e+00  1.0003161071183713e+00 0.0000000000000000e+00 0.0000000000000000e+00  1.0011416298315958e+00 0.0000000000000000e+00 0.0000000000000000e+00  1.0012992875219235e+00 0.0000000000000000e+00 0.0000000000000000e+00  1.0014574377145078e+00 0.0000000000000000e+00 0.0000000000000000e+00  1.0021744492748887e+00 0.0000000000000000e+00 0.0000000000000000e+00  1.0032885232038598e+00 0.0000000000000000e+00 0.0000000000000000e+00  1.0043571638199633e+00 0.0000000000000000e+00 0.0000000000000000e+00  1.0057427108903514e+00 0.0000000000000000e+00 0.0000000000000000e+00  1.0079324089938582e+00 0.0000000000000000e+00 0.0000000000000000e+00  1.0101932714451010e+00 0.0000000000000000e+00 0.0000000000000000e+00  1.0139996653934289e+00 0.0000000000000000e+00 0.0000000000000000e+00  1.0156044215983584e+00 0.0000000000000000e+00 0.0000000000000000e+00  1.0200164637724523e+00 0.0000000000000000e+00 0.0000000000000000e+00  1.0266547117775167e+00 0.0000000000000000e+00 0.0000000000000000e+00  1.0320374721605399e+00 0.0000000000000000e+00 0.0000000000000000e+00  1.0483078200741538e+00 0.0000000000000000e+00 0.0000000000000000e+00  1.0571349293670878e+00 0.0000000000000000e+00 0.0000000000000000e+00  1.0655641904858024e+00 0.0000000000000000e+00 0.0000000000000000e+00  1.0745805743963930e+00 0.0000000000000000e+00 0.0000000000000000e+00  1.0820304477458096e+00 0.0000000000000000e+00 0.0000000000000000e+00  1.0885528380711529e+00 0.0000000000000000e+00 0.0000000000000000e+00  1.0941290978735185e+00 0.0000000000000000e+00 0.0000000000000000e+00  1.0963451205970549e+00 0.0000000000000000e+00 0.0000000000000000e+00  1.0967971041861444e+00 0.0000000000000000e+00 0.0000000000000000e+00  1.0946119431736900e+00 0.0000000000000000e+00 0.0000000000000000e+00  1.0906925114156507e+00 0.0000000000000000e+00 0.0000000000000000e+00  1.0841782345221436e+00 0.0000000000000000e+00 0.0000000000000000e+00  1.0779738533768264e+00 0.0000000000000000e+00 0.0000000000000000e+00  1.0716309013726308e+00 0.0000000000000000e+00 0.0000000000000000e+00  1.0661641339807961e+00 0.0000000000000000e+00 0.0000000000000000e+00  1.0627116669305927e+00 0.0000000000000000e+00 0.0000000000000000e+00  1.0611125502517267e+00 0.0000000000000000e+00 0.0000000000000000e+00  1.0615048646113352e+00 0.0000000000000000e+00 0.0000000000000000e+00  1.0629204788067861e+00 0.0000000000000000e+00 0.0000000000000000e+00  1.0644533527845519e+00 0.0000000000000000e+00 0.0000000000000000e+00  1.0665738190887510e+00 0.0000000000000000e+00 0.0000000000000000e+00  1.0675061617846111e+00 0.0000000000000000e+00 0.0000000000000000e+00  1.0652240228322267e+00 0.0000000000000000e+00 0.0000000000000000e+00  1.0617025269902711e+00 0.0000000000000000e+00 0.0000000000000000e+00  1.0564539195232190e+00 0.0000000000000000e+00 0.0000000000000000e+00  1.0504620779775176e+00 0.0000000000000000e+00 0.0000000000000000e+00  1.0452493222727006e+00 0.0000000000000000e+00 0.0000000000000000e+00  1.0409733462510879e+00 0.0000000000000000e+00 0.0000000000000000e+00  1.0388780166021132e+00 0.0000000000000000e+00 0.0000000000000000e+00  1.0396292549187787e+00 0.0000000000000000e+00 0.0000000000000000e+00  1.0420106526824269e+00 0.0000000000000000e+00 0.0000000000000000e+00  1.0460320137923664e+00 0.0000000000000000e+00 0.0000000000000000e+00  1.0525104387706685e+00 0.0000000000000000e+00 0.0000000000000000e+00  1.0575799616512755e+00 0.0000000000000000e+00 0.0000000000000000e+00  1.0610394795880640e+00 0.0000000000000000e+00 0.0000000000000000e+00  1.0632529117774467e+00 0.0000000000000000e+00 0.0000000000000000e+00  1.0622031562871144e+00 0.0000000000000000e+00 0.0000000000000000e+00  1.0588694520075281e+00 0.0000000000000000e+00 0.0000000000000000e+00  1.0556843194308188e+00 0.0000000000000000e+00 0.0000000000000000e+00  1.0513664709920321e+00 0.0000000000000000e+00 0.0000000000000000e+00  1.0477516276727794e+00 0.0000000000000000e+00 0.0000000000000000e+00  1.0465302627245323e+00 0.0000000000000000e+00 0.0000000000000000e+00  1.0466127134239529e+00 0.0000000000000000e+00 0.0000000000000000e+00  1.0486705838121926e+00 0.0000000000000000e+00 0.0000000000000000e+00  1.0529540747307449e+00 0.0000000000000000e+00 0.0000000000000000e+00  1.0570250987304999e+00 0.0000000000000000e+00 0.0000000000000000e+00  1.0604451296269284e+00 0.0000000000000000e+00 0.0000000000000000e+00  1.0651930507965679e+00 0.0000000000000000e+00 0.0000000000000000e+00  1.0659934296556310e+00 0.0000000000000000e+00 0.0000000000000000e+00  1.0630927910213541e+00 0.0000000000000000e+00 0.0000000000000000e+00  1.0595530835663092e+00 0.0000000000000000e+00 0.0000000000000000e+00  1.0567833609377615e+00 0.0000000000000000e+00 0.0000000000000000e+00  1.0530404137419185e+00 0.0000000000000000e+00 0.0000000000000000e+00  1.0500727481990666e+00 0.0000000000000000e+00 0.0000000000000000e+00  1.0504403447286752e+00 0.0000000000000000e+00 0.0000000000000000e+00  1.0526165602439694e+00 0.0000000000000000e+00 0.0000000000000000e+00  1.0566828720675761e+00 0.0000000000000000e+00 0.0000000000000000e+00  1.0611311547908522e+00 0.0000000000000000e+00 0.0000000000000000e+00  1.0643008838684500e+00 0.0000000000000000e+00 0.0000000000000000e+00  1.0660559944572570e+00 0.0000000000000000e+00 0.0000000000000000e+00  1.0661731522830864e+00 0.0000000000000000e+00 0.0000000000000000e+00  1.0645861619426114e+00 0.0000000000000000e+00 0.0000000000000000e+00  1.0613176247122476e+00 0.0000000000000000e+00 0.0000000000000000e+00  1.0581867427615839e+00 0.0000000000000000e+00 0.0000000000000000e+00  1.0556247135466237e+00 0.0000000000000000e+00 0.0000000000000000e+00  1.0542730488417973e+00 0.0000000000000000e+00 0.0000000000000000e+00  1.0554436095187472e+00 0.0000000000000000e+00 0.0000000000000000e+00  1.0585069868253589e+00 0.0000000000000000e+00 0.0000000000000000e+00  1.0635875224658553e+00 0.0000000000000000e+00 0.0000000000000000e+00  1.0683456301208307e+00 0.0000000000000000e+00 0.0000000000000000e+00  1.0732436340601810e+00 0.0000000000000000e+00 0.0000000000000000e+00  1.0764987262392063e+00 0.0000000000000000e+00 0.0000000000000000e+00  1.0787240756356977e+00 0.0000000000000000e+00 0.0000000000000000e+00  1.0785185479893680e+00 0.0000000000000000e+00 0.0000000000000000e+00  1.0776805018532034e+00 0.0000000000000000e+00 0.0000000000000000e+00  1.0755008665540085e+00 0.0000000000000000e+00 0.0000000000000000e+00  1.0746504024404195e+00 9.5683402281843220e-04 0.0000000000000000e+00  1.0737995109024636e+00 2.5812999301181600e-03 0.0000000000000000e+00  1.0713586762815583e+00 5.8844399602742169e-03 0.0000000000000000e+00  1.0641869417319390e+00 1.2288589747572576e-02 0.0000000000000000e+00  1.0523165931523333e+00 2.3088566991238620e-02 0.0000000000000000e+00  1.0306745462647600e+00 4.1095595102744416e-02 0.0000000000000000e+00  9.9552135321248036e-01 6.4927687298414791e-02 0.0000000000000000e+00  9.4362272382704748e-01 9.4852318664592802e-02 0.0000000000000000e+00  8.7597265168272398e-01 1.2451923406153925e-01 0.0000000000000000e+00  8.0466079805803115e-01 1.4272263153422407e-01 0.0000000000000000e+00  7.4629781708803189e-01 1.5544362197968981e-01 0.0000000000000000e+00  7.1849635403399725e-01 1.7038705163656723e-01 0.0000000000000000e+00  7.4612564101757572e-01 1.9524452210787507e-01 0.0000000000000000e+00  8.3699914405239473e-01 2.2013074773367497e-01 0.0000000000000000e+00  9.6277662833652022e-01 2.3759524852366118e-01 0.0000000000000000e+00  1.0783461107740262e+00 2.1993315454811854e-01 0.0000000000000000e+00  1.1432152684833528e+00 1.7565787145994655e-01 0.0000000000000000e+00  1.1534324846755273e+00 1.2510957359989894e-01 0.0000000000000000e+00  1.1352518096840862e+00 8.1238422279208453e-02 0.0000000000000000e+00  1.1163273633403812e+00 4.9541258070683943e-02 0.0000000000000000e+00  1.1045778570038176e+00 2.9979074687775088e-02 0.0000000000000000e+00  1.0986519338256839e+00 1.7280676027475558e-02 0.0000000000000000e+00  1.0947606707905251e+00 7.7480165612202811e-03 0.0000000000000000e+00  1.0847902925787676e+00 0.0000000000000000e+00 0.0000000000000000e+00  1.0764905173525059e+00 0.0000000000000000e+00 0.0000000000000000e+00  1.0691678090925791e+00 0.0000000000000000e+00 0.0000000000000000e+00  1.0644306358199891e+00 0.0000000000000000e+00 0.0000000000000000e+00  1.0615717793145365e+00 0.0000000000000000e+00 0.0000000000000000e+00  1.0615432697003688e+00 0.0000000000000000e+00 0.0000000000000000e+00  1.0633131476163544e+00 0.0000000000000000e+00 0.0000000000000000e+00  1.0661706311552905e+00 0.0000000000000000e+00 0.0000000000000000e+00  1.0680097749328241e+00 0.0000000000000000e+00 0.0000000000000000e+00  1.0691520540588597e+00 0.0000000000000000e+00 0.0000000000000000e+00  1.0684009212556647e+00 0.0000000000000000e+00 0.0000000000000000e+00  1.0658443902652763e+00 0.0000000000000000e+00 0.0000000000000000e+00  1.0618736766565835e+00 0.0000000000000000e+00 0.0000000000000000e+00  1.0580929858267014e+00 0.0000000000000000e+00 0.0000000000000000e+00  1.0537837127672625e+00 0.0000000000000000e+00 0.0000000000000000e+00  1.0518394341407977e+00 0.0000000000000000e+00 0.0000000000000000e+00  1.0504075600451603e+00 0.0000000000000000e+00 0.0000000000000000e+00  1.0515774837628955e+00 0.0000000000000000e+00 0.0000000000000000e+00  1.0541686801889105e+00 0.0000000000000000e+00 0.0000000000000000e+00  1.0582878258232171e+00 0.0000000000000000e+00 0.0000000000000000e+00  1.0618738052080858e+00 0.0000000000000000e+00 0.0000000000000000e+00  1.0640669621271015e+00 0.0000000000000000e+00 0.0000000000000000e+00  1.0648926450600436e+00 0.0000000000000000e+00 0.0000000000000000e+00  1.0598339528057439e+00 0.0000000000000000e+00 0.0000000000000000e+00  1.0558527732272451e+00 0.0000000000000000e+00 0.0000000000000000e+00  1.0509739056211918e+00 0.0000000000000000e+00 0.0000000000000000e+00  1.0484802433241107e+00 0.0000000000000000e+00 0.0000000000000000e+00  1.0484516993360686e+00 0.0000000000000000e+00 0.0000000000000000e+00  1.0492094712080313e+00 0.0000000000000000e+00 0.0000000000000000e+00  1.0499313223825033e+00 0.0000000000000000e+00 0.0000000000000000e+00  1.0541376492710148e+00 0.0000000000000000e+00 0.0000000000000000e+00  1.0586470382950182e+00 0.0000000000000000e+00 0.0000000000000000e+00  1.0617146784584959e+00 0.0000000000000000e+00 0.0000000000000000e+00  1.0637706981641628e+00 0.0000000000000000e+00 0.0000000000000000e+00  1.0636163641896066e+00 0.0000000000000000e+00 0.0000000000000000e+00  1.0605252090695232e+00 0.0000000000000000e+00 0.0000000000000000e+00  1.0564870772194710e+00 0.0000000000000000e+00 0.0000000000000000e+00  1.0514532952752738e+00 0.0000000000000000e+00 0.0000000000000000e+00  1.0458111757246515e+00 0.0000000000000000e+00 0.0000000000000000e+00  1.0427732679624426e+00 0.0000000000000000e+00 0.0000000000000000e+00  1.0416637602814516e+00 0.0000000000000000e+00 0.0000000000000000e+00  1.0419117258326100e+00 0.0000000000000000e+00 0.0000000000000000e+00  1.0452196123317483e+00 0.0000000000000000e+00 0.0000000000000000e+00  1.0498030147818935e+00 0.0000000000000000e+00 0.0000000000000000e+00  1.0538576417294672e+00 0.0000000000000000e+00 0.0000000000000000e+00  1.0586442210936755e+00 0.0000000000000000e+00 0.0000000000000000e+00  1.0617709677292217e+00 0.0000000000000000e+00 0.0000000000000000e+00  1.0617543348043359e+00 0.0000000000000000e+00 0.0000000000000000e+00  1.0597454824407511e+00 0.0000000000000000e+00 0.0000000000000000e+00  1.0558317775239783e+00 0.0000000000000000e+00 0.0000000000000000e+00  1.0505309461529262e+00 0.0000000000000000e+00 0.0000000000000000e+00  1.0458223889939890e+00 0.0000000000000000e+00 0.0000000000000000e+00  1.0424107185486136e+00 0.0000000000000000e+00 0.0000000000000000e+00  1.0408388796856152e+00 0.0000000000000000e+00 0.0000000000000000e+00  1.0425165745004592e+00 0.0000000000000000e+00 0.0000000000000000e+00  1.0454211044249979e+00 0.0000000000000000e+00 0.0000000000000000e+00  1.0507043811854206e+00 0.0000000000000000e+00 0.0000000000000000e+00  1.0579032505689163e+00 0.0000000000000000e+00 0.0000000000000000e+00  1.0653535104464960e+00 0.0000000000000000e+00 0.0000000000000000e+00  1.0718201362760673e+00 0.0000000000000000e+00 0.0000000000000000e+00  1.0768095739146117e+00 0.0000000000000000e+00 0.0000000000000000e+00  1.0808587105013880e+00 0.0000000000000000e+00 0.0000000000000000e+00  1.0843477197549334e+00 0.0000000000000000e+00 0.0000000000000000e+00  1.0859662830621255e+00 0.0000000000000000e+00 0.0000000000000000e+00  1.0866783453540820e+00 0.0000000000000000e+00 0.0000000000000000e+00  1.0883040250062554e+00 0.0000000000000000e+00 0.0000000000000000e+00  1.0879092046751211e+00 0.0000000000000000e+00 0.0000000000000000e+00  1.0879108291432398e+00 0.0000000000000000e+00 0.0000000000000000e+00  1.0868473724652101e+00 0.0000000000000000e+00 0.0000000000000000e+00  1.0841183269817871e+00 0.0000000000000000e+00 0.0000000000000000e+00  1.0803788152825042e+00 0.0000000000000000e+00 0.0000000000000000e+00  1.0757529049817995e+00 0.0000000000000000e+00 0.0000000000000000e+00  1.0700203081090129e+00 0.0000000000000000e+00 0.0000000000000000e+00  1.0627607836318689e+00 0.0000000000000000e+00 0.0000000000000000e+00  1.0559558595395930e+00 0.0000000000000000e+00 0.0000000000000000e+00  1.0483129115294971e+00 0.0000000000000000e+00 0.0000000000000000e+00  1.0334997184750359e+00 0.0000000000000000e+00 0.0000000000000000e+00  1.0270069621285105e+00 0.0000000000000000e+00 0.0000000000000000e+00  1.0218252702066009e+00 0.0000000000000000e+00 0.0000000000000000e+00  1.0171356886622005e+00 0.0000000000000000e+00 0.0000000000000000e+00  1.0133131925247272e+00 0.0000000000000000e+00 0.0000000000000000e+00  1.0102947976871262e+00 0.0000000000000000e+00 0.0000000000000000e+00  1.0080083291798096e+00 0.0000000000000000e+00 0.0000000000000000e+00  1.0058143254050385e+00 0.0000000000000000e+00 0.0000000000000000e+00  1.0042870463830929e+00 0.0000000000000000e+00 0.0000000000000000e+00  1.0032423717701842e+00 0.0000000000000000e+00 0.0000000000000000e+00  1.0020120176756455e+00 0.0000000000000000e+00 0.0000000000000000e+00  1.0017928945877124e+00 0.0000000000000000e+00 0.0000000000000000e+00  1.0006528633011225e+00 0.0000000000000000e+00 0.0000000000000000e+00  1.0005459672053030e+00 0.0000000000000000e+00 0.0000000000000000e+00  1.0000357777118913e+00 0.0000000000000000e+00 0.0000000000000000e+00  1.0006268987160953e+00 0.0000000000000000e+00 0.0000000000000000e+00  1.0003072259192511e+00 0.0000000000000000e+00 0.0000000000000000e+00  9.9980628178980513e-01 0.0000000000000000e+00 0.0000000000000000e+00  1.0000001297087238e+00 0.0000000000000000e+00 0.0000000000000000e+00  1.0000001297087238e+00 0.0000000000000000e+00 0.0000000000000000e+00  1.0000001297087238e+00 0.0000000000000000e+00 0.0000000000000000e+00  1.0000001297087238e+00 0.0000000000000000e+00 0.0000000000000000e+00  1.0000001297087238e+00 0.0000000000000000e+00 0.0000000000000000e+00  1.0000001297087238e+00 0.0000000000000000e+00 0.0000000000000000e+00  1.0000001297087238e+00 0.0000000000000000e+00 0.0000000000000000e+00  1.0000001297087238e+00 0.0000000000000000e+00 0.0000000000000000e+00  1.0000001297087238e+00 0.0000000000000000e+00 0.0000000000000000e+00  1.0000001297087238e+00 0.0000000000000000e+00 0.0000000000000000e+00  1.0000001297087238e+00 0.0000000000000000e+00 0.0000000000000000e+00  1.0000001297087238e+00 0.0000000000000000e+00 0.0000000000000000e+00  1.0000001297087238e+00 0.0000000000000000e+00 0.0000000000000000e+00  1.0000001297087238e+00 0.0000000000000000e+00 0.0000000000000000e+00  1.0000001297087238e+00 0.0000000000000000e+00 0.0000000000000000e+00  1.0000001297087238e+00 0.0000000000000000e+00 0.0000000000000000e+00  1.0000001297087238e+00 0.0000000000000000e+00 0.0000000000000000e+00  1.0000001297087238e+00 0.0000000000000000e+00 0.0000000000000000e+00  1.0000001297087238e+00 0.0000000000000000e+00 0.0000000000000000e+00  1.0000001297087238e+00 0.0000000000000000e+00 0.0000000000000000e+00  1.0394089942897473e+00 -9.5644446629778463e-03 0.0000000000000000e+00  1.0361939875420971e+00 -1.9276598476953656e-02 0.0000000000000000e+00  1.0336029043270660e+00 -2.9586889055013436e-02 0.0000000000000000e+00  1.0273481537281344e+00 -4.0326253886526581e-02 0.0000000000000000e+00  1.0207373029922839e+00 -5.4991502398784198e-02 0.0000000000000000e+00  1.0249836128841117e+00 -5.8610691309659506e-02 0.0000000000000000e+00  1.0288916770924212e+00 -6.2324780188590737e-02 0.0000000000000000e+00  1.0337944572920001e+00 -6.5785041674918721e-02 0.0000000000000000e+00  1.0389897697243917e+00 -6.9124121441390657e-02 0.0000000000000000e+00  1.0448145464956267e+00 -7.2094884011146665e-02 0.0000000000000000e+00  1.0512306921617030e+00 -7.4738227810448907e-02 0.0000000000000000e+00  1.0581151351239912e+00 -7.6766285822015640e-02 0.0000000000000000e+00  1.0655214660676169e+00 -7.8284787981497489e-02 0.0000000000000000e+00  1.0730958245740114e+00 -7.8965861355891329e-02 0.0000000000000000e+00  1.0810188468728601e+00 -7.9027395575514345e-02 0.0000000000000000e+00  1.0890278563355340e+00 -7.8345962772868788e-02 0.0000000000000000e+00  1.0971569946118385e+00 -7.6643332740113188e-02 0.0000000000000000e+00  1.1049892953709803e+00 -7.4049343116157254e-02 0.0000000000000000e+00  1.1126041473107660e+00 -7.0766005496182727e-02 0.0000000000000000e+00  1.1198642837616621e+00 -6.6691778269159133e-02 0.0000000000000000e+00  1.1265876003493116e+00 -6.1880497347406763e-02 0.0000000000000000e+00  1.1327846851205912e+00 -5.6440843116089184e-02 0.0000000000000000e+00  1.1383928771365928e+00 -5.0490273901537187e-02 0.0000000000000000e+00  1.1433991215692052e+00 -4.3910033064089166e-02 0.0000000000000000e+00  1.1477734583719668e+00 -3.7065294767988803e-02 0.0000000000000000e+00  1.1515014170909568e+00 -2.9661200536180994e-02 0.0000000000000000e+00  1.1544535458509115e+00 -2.1857861960637017e-02 0.0000000000000000e+00  1.1567974582882672e+00 -1.3767422986984232e-02 0.0000000000000000e+00  1.1582583415073817e+00 -5.3844648994901875e-03 0.0000000000000000e+00  1.1588904585050261e+00 3.3063335950151451e-03 0.0000000000000000e+00  1.1585625113491749e+00 1.2221908641924500e-02 0.0000000000000000e+00  1.1571860485504926e+00 2.1198246043314543e-02 0.0000000000000000e+00  1.1547486020373490e+00 3.0280705737510422e-02 0.0000000000000000e+00  1.1511139695990704e+00 3.9290150339956871e-02 0.0000000000000000e+00  1.1462987779440130e+00 4.7970479469941797e-02 0.0000000000000000e+00  1.1402909706047668e+00 5.6182739003857202e-02 0.00