<?xml version="1.0"?>
<VTKFile type="UnstructuredGrid"  version="0.1"  >
<UnstructuredGrid>
<Piece  NumberOfPoints="10199" NumberOfCells="20110">
<Points>
<DataArray  type="Float64"  NumberOfComponents="3"  format="ascii">0 -5 0  8 -5 0  30 -5 0  40 -5 0  40 5 0  30 5 0  8 5 0  0 5 0  8 -2.5 0  15 -2.5 0  30 -2.5 0  30 2.5 0  15 2.5 0  8 2.5 0  10 0.5 0  10 -0.5 0  0 0 0  0.4210526315780956 -5 0  0.8421052631563433 -5 0  1.263157894734281 -5 0  1.684210526311999 -5 0  2.105263157889717 -5 0  2.526315789467435 -5 0  2.947368421045153 -5 0  3.368421052622872 -5 0  3.78947368420059 -5 0  4.210526315779479 -5 0  4.631578947359537 -5 0  5.052631578939595 -5 0  5.473684210519653 -5 0  5.89473684209971 -5 0  6.315789473679768 -5 0  6.736842105259826 -5 0  7.157894736839884 -5 0  7.578947368419942 -5 0  8.407407407405314 -5 0  8.814814814810628 -5 0  9.222222222215942 -5 0  9.629629629621256 -5 0  10.03703703702657 -5 0  10.44444444443188 -5 0  10.8518518518372 -5 0  11.25925925924251 -5 0  11.66666666664783 -5 0  12.07407407405314 -5 0  12.48148148145846 -5 0  12.88888888886377 -5 0  13.29629629626908 -5 0  13.7037037036744 -5 0  14.11111111107971 -5 0  14.51851851848502 -5 0  14.92592592589034 -5 0  15.33333333329565 -5 0  15.74074074070096 -5 0  16.14814814810754 -5 0  16.55555555551614 -5 0  16.96296296292474 -5 0  17.37037037033335 -5 0  17.77777777774195 -5 0  18.18518518515056 -5 0  18.59259259255916 -5 0  18.99999999996776 -5 0  19.40740740737636 -5 0  19.81481481478497 -5 0  20.22222222219357 -5 0  20.62962962960217 -5 0  21.03703703701077 -5 0  21.44444444441937 -5 0  21.85185185182797 -5 0  22.25925925923657 -5 0  22.66666666664518 -5 0  23.07407407405378 -5 0  23.48148148146238 -5 0  23.88888888887098 -5 0  24.29629629627958 -5 0  24.70370370368818 -5 0  25.11111111109678 -5 0  25.51851851850539 -5 0  25.92592592591399 -5 0  26.33333333332259 -5 0  26.74074074073119 -5 0  27.14814814813979 -5 0  27.55555555554839 -5 0  27.96296296295699 -5 0  28.3703703703656 -5 0  28.7777777777742 -5 0  29.1851851851828 -5 0  29.5925925925914 -5 0  30.41666666667852 -5 0  30.83333333335704 -5 0  31.25000000003556 -5 0  31.66666666671408 -5 0  32.08333333338936 -5 0  32.50000000005308 -5 0  32.9166666667168 -5 0  33.33333333338052 -5 0  33.75000000004424 -5 0  34.16666666670795 -5 0  34.58333333337167 -5 0  35.00000000003539 -5 0  35.41666666669911 -5 0  35.83333333336282 -5 0  36.25000000002654 -5 0  36.66666666669026 -5 0  37.08333333335398 -5 0  37.50000000001769 -5 0  37.91666666668141 -5 0  38.33333333334513 -5 0  38.75000000000885 -5 0  39.16666666667257 -5 0  39.58333333333628 -5 0  40 -4.583333333332821 0  40 -4.166666666665642 0  40 -3.74999999999855 0  40 -3.333333333333135 0  40 -2.916666666667806 0  40 -2.500000000002478 0  40 -2.083333333337148 0  40 -1.666666666671818 0  40 -1.250000000006488 0  40 -0.8333333333405228 0  40 -0.4166666666733416 0  40 -6.163070054299169e-12 0  40 0.4166666666610173 0  40 0.8333333333281976 0  40 1.249999999995378 0  40 1.666666666662558 0  40 2.083333333329739 0  40 2.499999999996919 0  40 2.916666666664099 0  40 3.33333333333128 0  40 3.74999999999846 0  40 4.166666666665641 0  40 4.583333333332821 0  39.58333333333628 5 0  39.16666666667256 5 0  38.75000000000885 5 0  38.33333333334513 5 0  37.91666666668141 5 0  37.50000000001769 5 0  37.08333333335398 5 0  36.66666666669025 5 0  36.25000000002654 5 0  35.83333333336282 5 0  35.41666666669911 5 0  35.00000000003539 5 0  34.58333333337167 5 0  34.16666666670795 5 0  33.75000000004424 5 0  33.33333333338052 5 0  32.9166666667168 5 0  32.50000000005308 5 0  32.08333333338936 5 0  31.66666666671408 5 0  31.25000000003556 5 0  30.83333333335704 5 0  30.41666666667852 5 0  29.59259259259259 5 0  29.18518518518519 5 0  28.77777777777778 5 0  28.37037037037037 5 0  27.96296296296296 5 0  27.55555555555556 5 0  27.14814814814815 5 0  26.74074074074074 5 0  26.33333333333333 5 0  25.92592592592593 5 0  25.51851851851852 5 0  25.11111111111111 5 0  24.7037037037037 5 0  24.2962962962963 5 0  23.88888888888889 5 0  23.48148148148148 5 0  23.07407407407408 5 0  22.66666666666667 5 0  22.25925925925926 5 0  21.85185185185185 5 0  21.44444444444445 5 0  21.03703703703704 5 0  20.62962962962963 5 0  20.22222222222222 5 0  19.81481481481482 5 0  19.40740740740741 5 0  19 5 0  18.5925925925926 5 0  18.18518518518519 5 0  17.77777777777778 5 0  17.37037037037037 5 0  16.96296296296296 5 0  16.55555555555556 5 0  16.14814814814815 5 0  15.74074074074074 5 0  15.33333333333333 5 0  14.92592592592593 5 0  14.51851851851852 5 0  14.11111111111111 5 0  13.70370370370371 5 0  13.2962962962963 5 0  12.88888888888889 5 0  12.48148148148148 5 0  12.07407407407408 5 0  11.66666666666667 5 0  11.25925925925926 5 0  10.85185185185185 5 0  10.44444444444445 5 0  10.03703703703704 5 0  9.629629629629633 5 0  9.222222222222221 5 0  8.814814814814817 5 0  8.407407407407408 5 0  7.5789473684193 5 0  7.157894736838599 5 0  6.73684210526082 5 0  6.315789473684795 5 0  5.894736842108769 5 0  5.473684210532742 5 0  5.052631578956715 5 0  4.631578947380689 5 0  4.210526315804662 5 0  3.789473684226299 5 0  3.368421052645599 5 0  2.947368421064898 5 0  2.526315789484198 5 0  2.105263157903499 5 0  1.6842105263228 5 0  1.2631578947421 5 0  0.8421052631613994 5 0  0.4210526315806993 5 0  0 4.545454545454545 0  0 4.09090909090909 0  0 3.636363636363634 0  0 3.18181818181818 0  0 2.727272727272726 0  0 2.272727272727271 0  0 1.818181818181817 0  0 1.363636363636363 0  0 0.9090909090909092 0  0 0.454545454545455 0  0 -0.4545454545450807 0  0 -0.9090909090895867 0  0 -1.363636363633713 0  0 -1.818181818177841 0  0 -2.272727272723127 0  0 -2.727272727269273 0  0 -3.181818181815419 0  0 -3.636363636361564 0  0 -4.090909090907709 0  0 -4.545454545453855 0  8 -4.499999999999999 0  8 -3.999999999999999 0  8 -3.499999999999999 0  8 -3 0  8.137254901963859 -2.5 0  8.274509803926303 -2.5 0  8.411764705886863 -2.5 0  8.549019607849138 -2.5 0  8.686274509809513 -2.5 0  8.82352941176989 -2.5 0  8.960784313730265 -2.5 0  9.098039215690642 -2.5 0  9.235294117651017 -2.5 0  9.372549019611395 -2.5 0  9.50980392157177 -2.5 0  9.647058823532147 -2.5 0  9.784313725492522 -2.5 0  9.921568627452897 -2.5 0  10.05882352941327 -2.5 0  10.19607843137365 -2.5 0  10.33333333333402 -2.5 0  10.4705882352944 -2.5 0  10.60784313725478 -2.5 0  10.74509803921515 -2.5 0  10.88235294117553 -2.5 0  11.0196078431359 -2.5 0  11.15686274509628 -2.5 0  11.29411764705665 -2.5 0  11.43137254901703 -2.5 0  11.56862745097915 -2.5 0  11.70588235294301 -2.5 0  11.84313725490686 -2.5 0  11.98039215687072 -2.5 0  12.11764705883209 -2.5 0  12.25490196079247 -2.5 0  12.39215686275285 -2.5 0  12.52941176471322 -2.5 0  12.6666666666736 -2.5 0  12.80392156863397 -2.5 0  12.94117647059435 -2.5 0  13.07843137255473 -2.5 0  13.2156862745151 -2.5 0  13.35294117647548 -2.5 0  13.49019607843586 -2.5 0  13.62745098039623 -2.5 0  13.76470588235661 -2.5 0  13.90196078431699 -2.5 0  14.03921568627736 -2.5 0  14.17647058823774 -2.5 0  14.31372549019812 -2.5 0  14.45098039215849 -2.5 0  14.58823529411887 -2.5 0  14.72549019607925 -2.5 0  14.86274509803962 -2.5 0  15.20270270270254 -2.5 0  15.40540540540509 -2.5 0  15.60810810810763 -2.5 0  15.81081081081017 -2.5 0  16.01351351351227 -2.5 0  16.21621621621265 -2.5 0  16.41891891891279 -2.5 0  16.62162162161294 -2.5 0  16.82432432431308 -2.5 0  17.02702702701322 -2.5 0  17.22972972971337 -2.5 0  17.43243243241351 -2.5 0  17.63513513511365 -2.5 0  17.83783783781379 -2.5 0  18.04054054051394 -2.5 0  18.24324324321408 -2.5 0  18.44594594591422 -2.5 0  18.64864864861436 -2.5 0  18.85135135131451 -2.5 0  19.05405405401465 -2.5 0  19.25675675671479 -2.5 0  19.45945945941494 -2.5 0  19.66216216211508 -2.5 0  19.86486486481522 -2.5 0  20.06756756751536 -2.5 0  20.27027027021551 -2.5 0  20.47297297291565 -2.5 0  20.6756756756158 -2.5 0  20.87837837831594 -2.5 0  21.08108108101608 -2.5 0  21.28378378371622 -2.5 0  21.48648648641637 -2.5 0  21.68918918911651 -2.5 0  21.89189189181666 -2.5 0  22.0945945945168 -2.5 0  22.29729729721694 -2.5 0  22.49999999991778 -2.5 0  22.70270270262203 -2.5 0  22.90540540532697 -2.5 0  23.10810810803191 -2.5 0  23.31081081073686 -2.5 0  23.5135135134418 -2.5 0  23.71621621614674 -2.5 0  23.91891891885169 -2.5 0  24.12162162155663 -2.5 0  24.32432432426158 -2.5 0  24.52702702696652 -2.5 0  24.72972972967146 -2.5 0  24.93243243237641 -2.5 0  25.13513513508135 -2.5 0  25.3378378377863 -2.5 0  25.54054054049124 -2.5 0  25.74324324319618 -2.5 0  25.94594594590112 -2.5 0  26.14864864860607 -2.5 0  26.35135135131101 -2.5 0  26.55405405401596 -2.5 0  26.7567567567209 -2.5 0  26.95945945942584 -2.5 0  27.16216216213079 -2.5 0  27.36486486483573 -2.5 0  27.56756756754068 -2.5 0  27.77027027024562 -2.5 0  27.97297297295056 -2.5 0  28.1756756756555 -2.5 0  28.37837837836045 -2.5 0  28.5810810810654 -2.5 0  28.78378378377034 -2.5 0  28.98648648647528 -2.5 0  29.18918918918023 -2.5 0  29.39189189188517 -2.5 0  29.59459459459011 -2.5 0  29.79729729729506 -2.5 0  30 -3.000000000000001 0  30 -3.500000000000001 0  30 -4.000000000000001 0  30 -4.5 0  8 4.499999999999999 0  8 3.999999999999999 0  8 3.499999999999999 0  8 3 0  8.137254901963859 2.5 0  8.274509803926303 2.5 0  8.411764705886863 2.5 0  8.549019607849138 2.5 0  8.686274509809513 2.5 0  8.82352941176989 2.5 0  8.960784313730265 2.5 0  9.098039215690642 2.5 0  9.235294117651017 2.5 0  9.372549019611395 2.5 0  9.50980392157177 2.5 0  9.647058823532147 2.5 0  9.784313725492522 2.5 0  9.921568627452897 2.5 0  10.05882352941327 2.5 0  10.19607843137365 2.5 0  10.33333333333402 2.5 0  10.4705882352944 2.5 0  10.60784313725478 2.5 0  10.74509803921515 2.5 0  10.88235294117553 2.5 0  11.0196078431359 2.5 0  11.15686274509628 2.5 0  11.29411764705665 2.5 0  11.43137254901703 2.5 0  11.56862745097915 2.5 0  11.70588235294301 2.5 0  11.84313725490686 2.5 0  11.98039215687072 2.5 0  12.11764705883209 2.5 0  12.25490196079247 2.5 0  1
[...]
<PointData  Vectors="f_17"> 
<DataArray  type="Float64"  Name="f_17"  NumberOfComponents="3" format="ascii">1.0000001311745335e+00 0.0000000000000000e+00 0.0000000000000000e+00  1.0391370063629546e+00 0.0000000000000000e+00 0.0000000000000000e+00  1.0549483367970207e+00 0.0000000000000000e+00 0.0000000000000000e+00  1.0790476920649554e+00 0.0000000000000000e+00 0.0000000000000000e+00  1.0873845661742068e+00 0.0000000000000000e+00 0.0000000000000000e+00  1.0593565364094284e+00 0.0000000000000000e+00 0.0000000000000000e+00  1.0417955488494897e+00 0.0000000000000000e+00 0.0000000000000000e+00  1.0000001311745335e+00 0.0000000000000000e+00 0.0000000000000000e+00  1.0174806246318504e+00 -5.0002092518760866e-02 0.0000000000000000e+00  9.8738854403986653e-01 3.1683008557855032e-02 0.0000000000000000e+00  1.0240340264653285e+00 7.2229696302561278e-02 0.0000000000000000e+00  1.1176001689697104e+00 8.2661272369545166e-02 0.0000000000000000e+00  1.1387368647668803e+00 -2.3915808389857077e-02 0.0000000000000000e+00  1.0253071333409616e+00 5.1677768188358751e-02 0.0000000000000000e+00  0.0000000000000000e+00 0.0000000000000000e+00 0.0000000000000000e+00  0.0000000000000000e+00 0.0000000000000000e+00 0.0000000000000000e+00  1.0000001311745335e+00 0.0000000000000000e+00 0.0000000000000000e+00  9.9928860158021704e-01 0.0000000000000000e+00 0.0000000000000000e+00  9.9868690476339361e-01 0.0000000000000000e+00 0.0000000000000000e+00  1.0006687421064859e+00 0.0000000000000000e+00 0.0000000000000000e+00  1.0003614303941266e+00 0.0000000000000000e+00 0.0000000000000000e+00  1.0011691222940522e+00 0.0000000000000000e+00 0.0000000000000000e+00  1.0012913569024324e+00 0.0000000000000000e+00 0.0000000000000000e+00  1.0013847461816638e+00 0.0000000000000000e+00 0.0000000000000000e+00  1.0020164179767654e+00 0.0000000000000000e+00 0.0000000000000000e+00  1.0030427026242679e+00 0.0000000000000000e+00 0.0000000000000000e+00  1.0040205279626564e+00 0.0000000000000000e+00 0.0000000000000000e+00  1.0053297178501170e+00 0.0000000000000000e+00 0.0000000000000000e+00  1.0074489949150514e+00 0.0000000000000000e+00 0.0000000000000000e+00  1.0096558308509156e+00 0.0000000000000000e+00 0.0000000000000000e+00  1.0134257662385902e+00 0.0000000000000000e+00 0.0000000000000000e+00  1.0149929115630696e+00 0.0000000000000000e+00 0.0000000000000000e+00  1.0193568454841593e+00 0.0000000000000000e+00 0.0000000000000000e+00  1.0259238746485628e+00 0.0000000000000000e+00 0.0000000000000000e+00  1.0312199227004275e+00 0.0000000000000000e+00 0.0000000000000000e+00  1.0472485799696847e+00 0.0000000000000000e+00 0.0000000000000000e+00  1.0559733696699569e+00 0.0000000000000000e+00 0.0000000000000000e+00  1.0643476029268804e+00 0.0000000000000000e+00 0.0000000000000000e+00  1.0733989087544369e+00 0.0000000000000000e+00 0.0000000000000000e+00  1.0810613222333048e+00 0.0000000000000000e+00 0.0000000000000000e+00  1.0880193754519181e+00 0.0000000000000000e+00 0.0000000000000000e+00  1.0942936309159226e+00 0.0000000000000000e+00 0.0000000000000000e+00  1.0974677334324741e+00 0.0000000000000000e+00 0.0000000000000000e+00  1.0990631761383947e+00 0.0000000000000000e+00 0.0000000000000000e+00  1.0980441510621952e+00 0.0000000000000000e+00 0.0000000000000000e+00  1.0951145344547426e+00 0.0000000000000000e+00 0.0000000000000000e+00  1.0891449047644828e+00 0.0000000000000000e+00 0.0000000000000000e+00  1.0828041320878383e+00 0.0000000000000000e+00 0.0000000000000000e+00  1.0754932150920185e+00 0.0000000000000000e+00 0.0000000000000000e+00  1.0682722380843823e+00 0.0000000000000000e+00 0.0000000000000000e+00  1.0624643162850260e+00 0.0000000000000000e+00 0.0000000000000000e+00  1.0582703179594999e+00 0.0000000000000000e+00 0.0000000000000000e+00  1.0563443204300682e+00 0.0000000000000000e+00 0.0000000000000000e+00  1.0562349408719311e+00 0.0000000000000000e+00 0.0000000000000000e+00  1.0575154766234034e+00 0.0000000000000000e+00 0.0000000000000000e+00  1.0607983969632850e+00 0.0000000000000000e+00 0.0000000000000000e+00  1.0641986254144595e+00 0.0000000000000000e+00 0.0000000000000000e+00  1.0652075736399733e+00 0.0000000000000000e+00 0.0000000000000000e+00  1.0650556296006333e+00 0.0000000000000000e+00 0.0000000000000000e+00  1.0625790127761943e+00 0.0000000000000000e+00 0.0000000000000000e+00  1.0581294603458686e+00 0.0000000000000000e+00 0.0000000000000000e+00  1.0529936140903471e+00 0.0000000000000000e+00 0.0000000000000000e+00  1.0472966264148462e+00 0.0000000000000000e+00 0.0000000000000000e+00  1.0426490693481787e+00 0.0000000000000000e+00 0.0000000000000000e+00  1.0401299700441666e+00 0.0000000000000000e+00 0.0000000000000000e+00  1.0392398389724946e+00 0.0000000000000000e+00 0.0000000000000000e+00  1.0405976429506310e+00 0.0000000000000000e+00 0.0000000000000000e+00  1.0455894440472471e+00 0.0000000000000000e+00 0.0000000000000000e+00  1.0506939780343900e+00 0.0000000000000000e+00 0.0000000000000000e+00  1.0556919699231486e+00 0.0000000000000000e+00 0.0000000000000000e+00  1.0606787520044438e+00 0.0000000000000000e+00 0.0000000000000000e+00  1.0628340894690356e+00 0.0000000000000000e+00 0.0000000000000000e+00  1.0624283032039481e+00 0.0000000000000000e+00 0.0000000000000000e+00  1.0611769486511706e+00 0.0000000000000000e+00 0.0000000000000000e+00  1.0574877402010350e+00 0.0000000000000000e+00 0.0000000000000000e+00  1.0530484751028140e+00 0.0000000000000000e+00 0.0000000000000000e+00  1.0498647213241759e+00 0.0000000000000000e+00 0.0000000000000000e+00  1.0473238353631453e+00 0.0000000000000000e+00 0.0000000000000000e+00  1.0467036081658478e+00 0.0000000000000000e+00 0.0000000000000000e+00  1.0487916355454687e+00 0.0000000000000000e+00 0.0000000000000000e+00  1.0516598137331987e+00 0.0000000000000000e+00 0.0000000000000000e+00  1.0551819304149113e+00 0.0000000000000000e+00 0.0000000000000000e+00  1.0613278656034881e+00 0.0000000000000000e+00 0.0000000000000000e+00  1.0644279850296563e+00 0.0000000000000000e+00 0.0000000000000000e+00  1.0642486675084677e+00 0.0000000000000000e+00 0.0000000000000000e+00  1.0630741777565318e+00 0.0000000000000000e+00 0.0000000000000000e+00  1.0617208211857982e+00 0.0000000000000000e+00 0.0000000000000000e+00  1.0581410449856299e+00 0.0000000000000000e+00 0.0000000000000000e+00  1.0520083592823111e+00 0.0000000000000000e+00 0.0000000000000000e+00  1.0499213552427638e+00 0.0000000000000000e+00 0.0000000000000000e+00  1.0498053617518641e+00 0.0000000000000000e+00 0.0000000000000000e+00  1.0523225015605160e+00 0.0000000000000000e+00 0.0000000000000000e+00  1.0563885378244728e+00 0.0000000000000000e+00 0.0000000000000000e+00  1.0603366615425043e+00 0.0000000000000000e+00 0.0000000000000000e+00  1.0639704469400268e+00 0.0000000000000000e+00 0.0000000000000000e+00  1.0664311244531723e+00 0.0000000000000000e+00 0.0000000000000000e+00  1.0672286978943817e+00 0.0000000000000000e+00 0.0000000000000000e+00  1.0656639134503079e+00 0.0000000000000000e+00 0.0000000000000000e+00  1.0632477071372286e+00 0.0000000000000000e+00 0.0000000000000000e+00  1.0600498825865943e+00 0.0000000000000000e+00 0.0000000000000000e+00  1.0570128752648451e+00 0.0000000000000000e+00 0.0000000000000000e+00  1.0557968441544809e+00 0.0000000000000000e+00 0.0000000000000000e+00  1.0564145067441102e+00 0.0000000000000000e+00 0.0000000000000000e+00  1.0596173152640624e+00 0.0000000000000000e+00 0.0000000000000000e+00  1.0636425939260872e+00 0.0000000000000000e+00 0.0000000000000000e+00  1.0690992541664106e+00 0.0000000000000000e+00 0.0000000000000000e+00  1.0740992281877342e+00 0.0000000000000000e+00 0.0000000000000000e+00  1.0787252027032386e+00 0.0000000000000000e+00 0.0000000000000000e+00  1.0809265984988072e+00 0.0000000000000000e+00 0.0000000000000000e+00  1.0818595910677140e+00 0.0000000000000000e+00 0.0000000000000000e+00  1.0803893530705466e+00 0.0000000000000000e+00 0.0000000000000000e+00  1.0796738910968178e+00 2.0324907117136586e-03 0.0000000000000000e+00  1.0807024440620718e+00 4.9858356041275961e-03 0.0000000000000000e+00  1.0819910834388629e+00 1.0262535391272245e-02 0.0000000000000000e+00  1.0817365282160325e+00 2.0236613296697795e-02 0.0000000000000000e+00  1.0813840604852585e+00 3.8353770224503952e-02 0.0000000000000000e+00  1.0740583656834632e+00 6.7356646017583136e-02 0.0000000000000000e+00  1.0505286831972267e+00 1.0944470188243223e-01 0.0000000000000000e+00  1.0018387099777306e+00 1.5655275943268598e-01 0.0000000000000000e+00  9.2882256537792640e-01 2.0066128518967621e-01 0.0000000000000000e+00  8.4686295496205399e-01 2.2925114001261804e-01 0.0000000000000000e+00  7.7584131070825135e-01 2.5352030900307376e-01 0.0000000000000000e+00  7.3650729568341111e-01 2.7415765432210132e-01 0.0000000000000000e+00  7.4923587930440805e-01 2.9375334027836508e-01 0.0000000000000000e+00  8.1437205255359402e-01 3.0729869861131953e-01 0.0000000000000000e+00  9.1253228527236674e-01 3.0243474765330286e-01 0.0000000000000000e+00  1.0082996373475390e+00 2.6494147924042566e-01 0.0000000000000000e+00  1.0693419812684544e+00 2.0579100368129977e-01 0.0000000000000000e+00  1.0901800742119687e+00 1.4142619189133682e-01 0.0000000000000000e+00  1.0904777737165696e+00 9.1290938004150987e-02 0.0000000000000000e+00  1.0900299816695074e+00 5.6282419995389070e-02 0.0000000000000000e+00  1.0897082389464436e+00 3.4712260437159137e-02 0.0000000000000000e+00  1.0894520059017594e+00 2.0121959263912328e-02 0.0000000000000000e+00  1.0882811201164182e+00 9.0837597445578844e-03 0.0000000000000000e+00  1.0786712549297399e+00 0.0000000000000000e+00 0.0000000000000000e+00  1.0713757809519193e+00 0.0000000000000000e+00 0.0000000000000000e+00  1.0662023489446208e+00 0.0000000000000000e+00 0.0000000000000000e+00  1.0641115175760716e+00 0.0000000000000000e+00 0.0000000000000000e+00  1.0636670423822396e+00 0.0000000000000000e+00 0.0000000000000000e+00  1.0652296000444770e+00 0.0000000000000000e+00 0.0000000000000000e+00  1.0675444549655320e+00 0.0000000000000000e+00 0.0000000000000000e+00  1.0696887079647501e+00 0.0000000000000000e+00 0.0000000000000000e+00  1.0698325301939582e+00 0.0000000000000000e+00 0.0000000000000000e+00  1.0686869460103574e+00 0.0000000000000000e+00 0.0000000000000000e+00  1.0656381558562606e+00 0.0000000000000000e+00 0.0000000000000000e+00  1.0613230935681510e+00 0.0000000000000000e+00 0.0000000000000000e+00  1.0566806365058259e+00 0.0000000000000000e+00 0.0000000000000000e+00  1.0534711273998780e+00 0.0000000000000000e+00 0.0000000000000000e+00  1.0509189281423217e+00 0.0000000000000000e+00 0.0000000000000000e+00  1.0513718527822020e+00 0.0000000000000000e+00 0.0000000000000000e+00  1.0524968326663096e+00 0.0000000000000000e+00 0.0000000000000000e+00  1.0556564232767396e+00 0.0000000000000000e+00 0.0000000000000000e+00  1.0591324142122758e+00 0.0000000000000000e+00 0.0000000000000000e+00  1.0628002949910857e+00 0.0000000000000000e+00 0.0000000000000000e+00  1.0647703794656409e+00 0.0000000000000000e+00 0.0000000000000000e+00  1.0644729474901720e+00 0.0000000000000000e+00 0.0000000000000000e+00  1.0628007311872885e+00 0.0000000000000000e+00 0.0000000000000000e+00  1.0547692731201765e+00 0.0000000000000000e+00 0.0000000000000000e+00  1.0510385843713268e+00 0.0000000000000000e+00 0.0000000000000000e+00  1.0475314012210368e+00 0.0000000000000000e+00 0.0000000000000000e+00  1.0472564613091735e+00 0.0000000000000000e+00 0.0000000000000000e+00  1.0498183505854501e+00 0.0000000000000000e+00 0.0000000000000000e+00  1.0528640979889383e+00 0.0000000000000000e+00 0.0000000000000000e+00  1.0551206826475819e+00 0.0000000000000000e+00 0.0000000000000000e+00  1.0596505822848883e+00 0.0000000000000000e+00 0.0000000000000000e+00  1.0630896858029188e+00 0.0000000000000000e+00 0.0000000000000000e+00  1.0639334997789920e+00 0.0000000000000000e+00 0.0000000000000000e+00  1.0631270466503355e+00 0.0000000000000000e+00 0.0000000000000000e+00  1.0601723986133311e+00 0.0000000000000000e+00 0.0000000000000000e+00  1.0550474681284356e+00 0.0000000000000000e+00 0.0000000000000000e+00  1.0502889231855799e+00 0.0000000000000000e+00 0.0000000000000000e+00  1.0460235575845140e+00 0.0000000000000000e+00 0.0000000000000000e+00  1.0423892632745126e+00 0.0000000000000000e+00 0.0000000000000000e+00  1.0421851292071149e+00 0.0000000000000000e+00 0.0000000000000000e+00  1.0441198162008583e+00 0.0000000000000000e+00 0.0000000000000000e+00  1.0470297360273575e+00 0.0000000000000000e+00 0.0000000000000000e+00  1.0519528975821553e+00 0.0000000000000000e+00 0.0000000000000000e+00  1.0567670509816780e+00 0.0000000000000000e+00 0.0000000000000000e+00  1.0595358876828720e+00 0.0000000000000000e+00 0.0000000000000000e+00  1.0616855676828718e+00 0.0000000000000000e+00 0.0000000000000000e+00  1.0613931299029822e+00 0.0000000000000000e+00 0.0000000000000000e+00  1.0578775988220235e+00 0.0000000000000000e+00 0.0000000000000000e+00  1.0531941262261322e+00 0.0000000000000000e+00 0.0000000000000000e+00  1.0479305373541756e+00 0.0000000000000000e+00 0.0000000000000000e+00  1.0429256755364362e+00 0.0000000000000000e+00 0.0000000000000000e+00  1.0399554135738625e+00 0.0000000000000000e+00 0.0000000000000000e+00  1.0393488197485128e+00 0.0000000000000000e+00 0.0000000000000000e+00  1.0409708374214859e+00 0.0000000000000000e+00 0.0000000000000000e+00  1.0456760454821381e+00 0.0000000000000000e+00 0.0000000000000000e+00  1.0508508000422960e+00 0.0000000000000000e+00 0.0000000000000000e+00  1.0573039513040512e+00 0.0000000000000000e+00 0.0000000000000000e+00  1.0644265220161260e+00 0.0000000000000000e+00 0.0000000000000000e+00  1.0705946163212230e+00 0.0000000000000000e+00 0.0000000000000000e+00  1.0749247689305907e+00 0.0000000000000000e+00 0.0000000000000000e+00  1.0773521973780715e+00 0.0000000000000000e+00 0.0000000000000000e+00  1.0789646675810323e+00 0.0000000000000000e+00 0.0000000000000000e+00  1.0805685647643219e+00 0.0000000000000000e+00 0.0000000000000000e+00  1.0811112269528813e+00 0.0000000000000000e+00 0.0000000000000000e+00  1.0816462053144498e+00 0.0000000000000000e+00 0.0000000000000000e+00  1.0838330565077015e+00 0.0000000000000000e+00 0.0000000000000000e+00  1.0844802589312932e+00 0.0000000000000000e+00 0.0000000000000000e+00  1.0857003585823364e+00 0.0000000000000000e+00 0.0000000000000000e+00  1.0858101372425719e+00 0.0000000000000000e+00 0.0000000000000000e+00  1.0840506876181106e+00 0.0000000000000000e+00 0.0000000000000000e+00  1.0809981642858264e+00 0.0000000000000000e+00 0.0000000000000000e+00  1.0767900945107012e+00 0.0000000000000000e+00 0.0000000000000000e+00  1.0712508296317040e+00 0.0000000000000000e+00 0.0000000000000000e+00  1.0640110500915696e+00 0.0000000000000000e+00 0.0000000000000000e+00  1.0571451778195429e+00 0.0000000000000000e+00 0.0000000000000000e+00  1.0493900257810909e+00 0.0000000000000000e+00 0.0000000000000000e+00  1.0343225278766148e+00 0.0000000000000000e+00 0.0000000000000000e+00  1.0277385343407990e+00 0.0000000000000000e+00 0.0000000000000000e+00  1.0224910427939142e+00 0.0000000000000000e+00 0.0000000000000000e+00  1.0177546096715751e+00 0.0000000000000000e+00 0.0000000000000000e+00  1.0138893697059377e+00 0.0000000000000000e+00 0.0000000000000000e+00  1.0108305247296148e+00 0.0000000000000000e+00 0.0000000000000000e+00  1.0084922041676818e+00 0.0000000000000000e+00 0.0000000000000000e+00  1.0062301937224551e+00 0.0000000000000000e+00 0.0000000000000000e+00  1.0046269974916318e+00 0.0000000000000000e+00 0.0000000000000000e+00  1.0034886473783582e+00 0.0000000000000000e+00 0.0000000000000000e+00  1.0021663611830409e+00 0.0000000000000000e+00 0.0000000000000000e+00  1.0018693669579186e+00 0.0000000000000000e+00 0.0000000000000000e+00  1.0006645089708575e+00 0.0000000000000000e+00 0.0000000000000000e+00  1.0005117125558611e+00 0.0000000000000000e+00 0.0000000000000000e+00  9.9999079688851833e-01 0.0000000000000000e+00 0.0000000000000000e+00  1.0005821267367654e+00 0.0000000000000000e+00 0.0000000000000000e+00  1.0002820940748431e+00 0.0000000000000000e+00 0.0000000000000000e+00  9.9980157536645875e-01 0.0000000000000000e+00 0.0000000000000000e+00  1.0000001311745335e+00 0.0000000000000000e+00 0.0000000000000000e+00  1.0000001311745335e+00 0.0000000000000000e+00 0.0000000000000000e+00  1.0000001311745335e+00 0.0000000000000000e+00 0.0000000000000000e+00  1.0000001311745335e+00 0.0000000000000000e+00 0.0000000000000000e+00  1.0000001311745335e+00 0.0000000000000000e+00 0.0000000000000000e+00  1.0000001311745335e+00 0.0000000000000000e+00 0.0000000000000000e+00  1.0000001311745335e+00 0.0000000000000000e+00 0.0000000000000000e+00  1.0000001311745335e+00 0.0000000000000000e+00 0.0000000000000000e+00  1.0000001311745335e+00 0.0000000000000000e+00 0.0000000000000000e+00  1.0000001311745335e+00 0.0000000000000000e+00 0.0000000000000000e+00  1.0000001311745335e+00 0.0000000000000000e+00 0.0000000000000000e+00  1.0000001311745335e+00 0.0000000000000000e+00 0.0000000000000000e+00  1.0000001311745335e+00 0.0000000000000000e+00 0.0000000000000000e+00  1.0000001311745335e+00 0.0000000000000000e+00 0.0000000000000000e+00  1.0000001311745335e+00 0.0000000000000000e+00 0.0000000000000000e+00  1.0000001311745335e+00 0.0000000000000000e+00 0.0000000000000000e+00  1.0000001311745335e+00 0.0000000000000000e+00 0.0000000000000000e+00  1.0000001311745335e+00 0.0000000000000000e+00 0.0000000000000000e+00  1.0000001311745335e+00 0.0000000000000000e+00 0.0000000000000000e+00  1.0000001311745335e+00 0.0000000000000000e+00 0.0000000000000000e+00  1.0384579474445235e+00 -9.4024195695861547e-03 0.0000000000000000e+00  1.0352317019246366e+00 -1.8944815136785156e-02 0.0000000000000000e+00  1.0326459724031365e+00 -2.9083548939818484e-02 0.0000000000000000e+00  1.0264557869313413e+00 -3.9559425970866320e-02 0.0000000000000000e+00  1.0199557817702907e+00 -5.3809315004186856e-02 0.0000000000000000e+00  1.0241319874473878e+00 -5.7311866850147053e-02 0.0000000000000000e+00  1.0279356272282221e+00 -6.0910630478810110e-02 0.0000000000000000e+00  1.0327229806865887e+00 -6.4246488080134889e-02 0.0000000000000000e+00  1.0377713865547080e+00 -6.7465913683629225e-02 0.0000000000000000e+00  1.0434234582800797e+00 -7.0310742905196094e-02 0.0000000000000000e+00  1.0496381812489093e+00 -7.2840850325184586e-02 0.0000000000000000e+00  1.0562702799227150e+00 -7.4765599961247778e-02 0.0000000000000000e+00  1.0633946539646773e+00 -7.6191834800466707e-02 0.0000000000000000e+00  1.0706206119062558e+00 -7.6802291173643358e-02 0.0000000000000000e+00  1.0781475683972357e+00 -7.6837281904213656e-02 0.0000000000000000e+00  1.0856817179037641e+00 -7.6193512118662571e-02 0.0000000000000000e+00  1.0932911793319477e+00 -7.4580295911312711e-02 0.0000000000000000e+00  1.1005371251509188e+00 -7.2153716148832175e-02 0.0000000000000000e+00  1.1074964753851213e+00 -6.9168953943765307e-02 0.0000000000000000e+00  1.1140491279671894e+00 -6.5525463625860883e-02 0.0000000000000000e+00  1.1200474399038158e+00 -6.1337344107412206e-02 0.0000000000000000e+00  1.1254854149512910e+00 -5.6696478449250076e-02 0.0000000000000000e+00  1.1304167412786239e+00 -5.1791919560071717e-02 0.0000000000000000e+00  1.1348078878640151e+00 -4.6491895197959383e-02 0.0000000000000000e+00  1.1387202068541957e+00 -4.1196901612680803e-02 0.0000000000000000e+00  1.1421854523215325e+00 -3.5520607168362452e-02 0.0000000000000000e+00  1.1452091893859133e+00 -2.9705414005699930e-02 0.0000000000000000e+00  1.1479581738795344e+00 -2.3784925853344411e-02 0.0000000000000000e+00  1.1503003630874455e+00 -1.7657095127363825e-02 0.0000000000000000e+00  1.1522679881840374e+00 -1.1239752213163876e-02 0.0000000000000000e+00  1.1538032747731630e+00 -4.4573166397708190e-03 0.0000000000000000e+00  1.1548316552818554e+00 2.6493779890977595e-03 0.0000000000000000e+00  1.1552425146017993e+00 1.0198404701308431e-02 0.0000000000000000e+00  1.1549202067054065e+00 1.8136218509263634e-02 0.0000000000000000e+00  1.1536992697105375e+00 2.6354662336921946e-02 0.0000000000000000e+00  1.1514871115543488e+00 3.4775997745864373e-02 0.0