<?xml version="1.0"?>
<VTKFile type="UnstructuredGrid"  version="0.1"  >
<UnstructuredGrid>
<Piece  NumberOfPoints="10199" NumberOfCells="20110">
<Points>
<DataArray  type="Float64"  NumberOfComponents="3"  format="ascii">0 -5 0  8 -5 0  30 -5 0  40 -5 0  40 5 0  30 5 0  8 5 0  0 5 0  8 -2.5 0  15 -2.5 0  30 -2.5 0  30 2.5 0  15 2.5 0  8 2.5 0  10 0.5 0  10 -0.5 0  0 0 0  0.4210526315780956 -5 0  0.8421052631563433 -5 0  1.263157894734281 -5 0  1.684210526311999 -5 0  2.105263157889717 -5 0  2.526315789467435 -5 0  2.947368421045153 -5 0  3.368421052622872 -5 0  3.78947368420059 -5 0  4.210526315779479 -5 0  4.631578947359537 -5 0  5.052631578939595 -5 0  5.473684210519653 -5 0  5.89473684209971 -5 0  6.315789473679768 -5 0  6.736842105259826 -5 0  7.157894736839884 -5 0  7.578947368419942 -5 0  8.407407407405314 -5 0  8.814814814810628 -5 0  9.222222222215942 -5 0  9.629629629621256 -5 0  10.03703703702657 -5 0  10.44444444443188 -5 0  10.8518518518372 -5 0  11.25925925924251 -5 0  11.66666666664783 -5 0  12.07407407405314 -5 0  12.48148148145846 -5 0  12.88888888886377 -5 0  13.29629629626908 -5 0  13.7037037036744 -5 0  14.11111111107971 -5 0  14.51851851848502 -5 0  14.92592592589034 -5 0  15.33333333329565 -5 0  15.74074074070096 -5 0  16.14814814810754 -5 0  16.55555555551614 -5 0  16.96296296292474 -5 0  17.37037037033335 -5 0  17.77777777774195 -5 0  18.18518518515056 -5 0  18.59259259255916 -5 0  18.99999999996776 -5 0  19.40740740737636 -5 0  19.81481481478497 -5 0  20.22222222219357 -5 0  20.62962962960217 -5 0  21.03703703701077 -5 0  21.44444444441937 -5 0  21.85185185182797 -5 0  22.25925925923657 -5 0  22.66666666664518 -5 0  23.07407407405378 -5 0  23.48148148146238 -5 0  23.88888888887098 -5 0  24.29629629627958 -5 0  24.70370370368818 -5 0  25.11111111109678 -5 0  25.51851851850539 -5 0  25.92592592591399 -5 0  26.33333333332259 -5 0  26.74074074073119 -5 0  27.14814814813979 -5 0  27.55555555554839 -5 0  27.96296296295699 -5 0  28.3703703703656 -5 0  28.7777777777742 -5 0  29.1851851851828 -5 0  29.5925925925914 -5 0  30.41666666667852 -5 0  30.83333333335704 -5 0  31.25000000003556 -5 0  31.66666666671408 -5 0  32.08333333338936 -5 0  32.50000000005308 -5 0  32.9166666667168 -5 0  33.33333333338052 -5 0  33.75000000004424 -5 0  34.16666666670795 -5 0  34.58333333337167 -5 0  35.00000000003539 -5 0  35.41666666669911 -5 0  35.83333333336282 -5 0  36.25000000002654 -5 0  36.66666666669026 -5 0  37.08333333335398 -5 0  37.50000000001769 -5 0  37.91666666668141 -5 0  38.33333333334513 -5 0  38.75000000000885 -5 0  39.16666666667257 -5 0  39.58333333333628 -5 0  40 -4.583333333332821 0  40 -4.166666666665642 0  40 -3.74999999999855 0  40 -3.333333333333135 0  40 -2.916666666667806 0  40 -2.500000000002478 0  40 -2.083333333337148 0  40 -1.666666666671818 0  40 -1.250000000006488 0  40 -0.8333333333405228 0  40 -0.4166666666733416 0  40 -6.163070054299169e-12 0  40 0.4166666666610173 0  40 0.8333333333281976 0  40 1.249999999995378 0  40 1.666666666662558 0  40 2.083333333329739 0  40 2.499999999996919 0  40 2.916666666664099 0  40 3.33333333333128 0  40 3.74999999999846 0  40 4.166666666665641 0  40 4.583333333332821 0  39.58333333333628 5 0  39.16666666667256 5 0  38.75000000000885 5 0  38.33333333334513 5 0  37.91666666668141 5 0  37.50000000001769 5 0  37.08333333335398 5 0  36.66666666669025 5 0  36.25000000002654 5 0  35.83333333336282 5 0  35.41666666669911 5 0  35.00000000003539 5 0  34.58333333337167 5 0  34.16666666670795 5 0  33.75000000004424 5 0  33.33333333338052 5 0  32.9166666667168 5 0  32.50000000005308 5 0  32.08333333338936 5 0  31.66666666671408 5 0  31.25000000003556 5 0  30.83333333335704 5 0  30.41666666667852 5 0  29.59259259259259 5 0  29.18518518518519 5 0  28.77777777777778 5 0  28.37037037037037 5 0  27.96296296296296 5 0  27.55555555555556 5 0  27.14814814814815 5 0  26.74074074074074 5 0  26.33333333333333 5 0  25.92592592592593 5 0  25.51851851851852 5 0  25.11111111111111 5 0  24.7037037037037 5 0  24.2962962962963 5 0  23.88888888888889 5 0  23.48148148148148 5 0  23.07407407407408 5 0  22.66666666666667 5 0  22.25925925925926 5 0  21.85185185185185 5 0  21.44444444444445 5 0  21.03703703703704 5 0  20.62962962962963 5 0  20.22222222222222 5 0  19.81481481481482 5 0  19.40740740740741 5 0  19 5 0  18.5925925925926 5 0  18.18518518518519 5 0  17.77777777777778 5 0  17.37037037037037 5 0  16.96296296296296 5 0  16.55555555555556 5 0  16.14814814814815 5 0  15.74074074074074 5 0  15.33333333333333 5 0  14.92592592592593 5 0  14.51851851851852 5 0  14.11111111111111 5 0  13.70370370370371 5 0  13.2962962962963 5 0  12.88888888888889 5 0  12.48148148148148 5 0  12.07407407407408 5 0  11.66666666666667 5 0  11.25925925925926 5 0  10.85185185185185 5 0  10.44444444444445 5 0  10.03703703703704 5 0  9.629629629629633 5 0  9.222222222222221 5 0  8.814814814814817 5 0  8.407407407407408 5 0  7.5789473684193 5 0  7.157894736838599 5 0  6.73684210526082 5 0  6.315789473684795 5 0  5.894736842108769 5 0  5.473684210532742 5 0  5.052631578956715 5 0  4.631578947380689 5 0  4.210526315804662 5 0  3.789473684226299 5 0  3.368421052645599 5 0  2.947368421064898 5 0  2.526315789484198 5 0  2.105263157903499 5 0  1.6842105263228 5 0  1.2631578947421 5 0  0.8421052631613994 5 0  0.4210526315806993 5 0  0 4.545454545454545 0  0 4.09090909090909 0  0 3.636363636363634 0  0 3.18181818181818 0  0 2.727272727272726 0  0 2.272727272727271 0  0 1.818181818181817 0  0 1.363636363636363 0  0 0.9090909090909092 0  0 0.454545454545455 0  0 -0.4545454545450807 0  0 -0.9090909090895867 0  0 -1.363636363633713 0  0 -1.818181818177841 0  0 -2.272727272723127 0  0 -2.727272727269273 0  0 -3.181818181815419 0  0 -3.636363636361564 0  0 -4.090909090907709 0  0 -4.545454545453855 0  8 -4.499999999999999 0  8 -3.999999999999999 0  8 -3.499999999999999 0  8 -3 0  8.137254901963859 -2.5 0  8.274509803926303 -2.5 0  8.411764705886863 -2.5 0  8.549019607849138 -2.5 0  8.686274509809513 -2.5 0  8.82352941176989 -2.5 0  8.960784313730265 -2.5 0  9.098039215690642 -2.5 0  9.235294117651017 -2.5 0  9.372549019611395 -2.5 0  9.50980392157177 -2.5 0  9.647058823532147 -2.5 0  9.784313725492522 -2.5 0  9.921568627452897 -2.5 0  10.05882352941327 -2.5 0  10.19607843137365 -2.5 0  10.33333333333402 -2.5 0  10.4705882352944 -2.5 0  10.60784313725478 -2.5 0  10.74509803921515 -2.5 0  10.88235294117553 -2.5 0  11.0196078431359 -2.5 0  11.15686274509628 -2.5 0  11.29411764705665 -2.5 0  11.43137254901703 -2.5 0  11.56862745097915 -2.5 0  11.70588235294301 -2.5 0  11.84313725490686 -2.5 0  11.98039215687072 -2.5 0  12.11764705883209 -2.5 0  12.25490196079247 -2.5 0  12.39215686275285 -2.5 0  12.52941176471322 -2.5 0  12.6666666666736 -2.5 0  12.80392156863397 -2.5 0  12.94117647059435 -2.5 0  13.07843137255473 -2.5 0  13.2156862745151 -2.5 0  13.35294117647548 -2.5 0  13.49019607843586 -2.5 0  13.62745098039623 -2.5 0  13.76470588235661 -2.5 0  13.90196078431699 -2.5 0  14.03921568627736 -2.5 0  14.17647058823774 -2.5 0  14.31372549019812 -2.5 0  14.45098039215849 -2.5 0  14.58823529411887 -2.5 0  14.72549019607925 -2.5 0  14.86274509803962 -2.5 0  15.20270270270254 -2.5 0  15.40540540540509 -2.5 0  15.60810810810763 -2.5 0  15.81081081081017 -2.5 0  16.01351351351227 -2.5 0  16.21621621621265 -2.5 0  16.41891891891279 -2.5 0  16.62162162161294 -2.5 0  16.82432432431308 -2.5 0  17.02702702701322 -2.5 0  17.22972972971337 -2.5 0  17.43243243241351 -2.5 0  17.63513513511365 -2.5 0  17.83783783781379 -2.5 0  18.04054054051394 -2.5 0  18.24324324321408 -2.5 0  18.44594594591422 -2.5 0  18.64864864861436 -2.5 0  18.85135135131451 -2.5 0  19.05405405401465 -2.5 0  19.25675675671479 -2.5 0  19.45945945941494 -2.5 0  19.66216216211508 -2.5 0  19.86486486481522 -2.5 0  20.06756756751536 -2.5 0  20.27027027021551 -2.5 0  20.47297297291565 -2.5 0  20.6756756756158 -2.5 0  20.87837837831594 -2.5 0  21.08108108101608 -2.5 0  21.28378378371622 -2.5 0  21.48648648641637 -2.5 0  21.68918918911651 -2.5 0  21.89189189181666 -2.5 0  22.0945945945168 -2.5 0  22.29729729721694 -2.5 0  22.49999999991778 -2.5 0  22.70270270262203 -2.5 0  22.90540540532697 -2.5 0  23.10810810803191 -2.5 0  23.31081081073686 -2.5 0  23.5135135134418 -2.5 0  23.71621621614674 -2.5 0  23.91891891885169 -2.5 0  24.12162162155663 -2.5 0  24.32432432426158 -2.5 0  24.52702702696652 -2.5 0  24.72972972967146 -2.5 0  24.93243243237641 -2.5 0  25.13513513508135 -2.5 0  25.3378378377863 -2.5 0  25.54054054049124 -2.5 0  25.74324324319618 -2.5 0  25.94594594590112 -2.5 0  26.14864864860607 -2.5 0  26.35135135131101 -2.5 0  26.55405405401596 -2.5 0  26.7567567567209 -2.5 0  26.95945945942584 -2.5 0  27.16216216213079 -2.5 0  27.36486486483573 -2.5 0  27.56756756754068 -2.5 0  27.77027027024562 -2.5 0  27.97297297295056 -2.5 0  28.1756756756555 -2.5 0  28.37837837836045 -2.5 0  28.5810810810654 -2.5 0  28.78378378377034 -2.5 0  28.98648648647528 -2.5 0  29.18918918918023 -2.5 0  29.39189189188517 -2.5 0  29.59459459459011 -2.5 0  29.79729729729506 -2.5 0  30 -3.000000000000001 0  30 -3.500000000000001 0  30 -4.000000000000001 0  30 -4.5 0  8 4.499999999999999 0  8 3.999999999999999 0  8 3.499999999999999 0  8 3 0  8.137254901963859 2.5 0  8.274509803926303 2.5 0  8.411764705886863 2.5 0  8.549019607849138 2.5 0  8.686274509809513 2.5 0  8.82352941176989 2.5 0  8.960784313730265 2.5 0  9.098039215690642 2.5 0  9.235294117651017 2.5 0  9.372549019611395 2.5 0  9.50980392157177 2.5 0  9.647058823532147 2.5 0  9.784313725492522 2.5 0  9.921568627452897 2.5 0  10.05882352941327 2.5 0  10.19607843137365 2.5 0  10.33333333333402 2.5 0  10.4705882352944 2.5 0  10.60784313725478 2.5 0  10.74509803921515 2.5 0  10.88235294117553 2.5 0  11.0196078431359 2.5 0  11.15686274509628 2.5 0  11.29411764705665 2.5 0  11.43137254901703 2.5 0  11.56862745097915 2.5 0  11.70588235294301 2.5 0  11.84313725490686 2.5 0  11.98039215687072 2.5 0  12.11764705883209 2.5 0  12.25490196079247 2.5 0  1
[...]
<PointData  Vectors="f_17"> 
<DataArray  type="Float64"  Name="f_17"  NumberOfComponents="3" format="ascii">1.0000001317219502e+00 0.0000000000000000e+00 0.0000000000000000e+00  1.0416978960406780e+00 0.0000000000000000e+00 0.0000000000000000e+00  1.0631142191070824e+00 0.0000000000000000e+00 0.0000000000000000e+00  1.0927496733541686e+00 0.0000000000000000e+00 0.0000000000000000e+00  1.0749568329483330e+00 0.0000000000000000e+00 0.0000000000000000e+00  1.0510250162913755e+00 0.0000000000000000e+00 0.0000000000000000e+00  1.0392321468687544e+00 0.0000000000000000e+00 0.0000000000000000e+00  1.0000001317219502e+00 0.0000000000000000e+00 0.0000000000000000e+00  1.0252487270669639e+00 -5.0863137933535786e-02 0.0000000000000000e+00  1.1213983711470885e+00 6.2985652015327270e-02 0.0000000000000000e+00  1.1502657128278408e+00 -4.8477557855765879e-02 0.0000000000000000e+00  9.9605258717393141e-01 -4.2648383357557669e-02 0.0000000000000000e+00  9.8912573825427208e-01 6.7204516669149691e-03 0.0000000000000000e+00  1.0175743367436745e+00 5.0825212504816183e-02 0.0000000000000000e+00  0.0000000000000000e+00 0.0000000000000000e+00 0.0000000000000000e+00  0.0000000000000000e+00 0.0000000000000000e+00 0.0000000000000000e+00  1.0000001317219502e+00 0.0000000000000000e+00 0.0000000000000000e+00  9.9931261191055309e-01 0.0000000000000000e+00 0.0000000000000000e+00  9.9882666478643922e-01 0.0000000000000000e+00 0.0000000000000000e+00  1.0009608881840857e+00 0.0000000000000000e+00 0.0000000000000000e+00  1.0008984643015726e+00 0.0000000000000000e+00 0.0000000000000000e+00  1.0020039416576021e+00 0.0000000000000000e+00 0.0000000000000000e+00  1.0024518225218582e+00 0.0000000000000000e+00 0.0000000000000000e+00  1.0028518953652867e+00 0.0000000000000000e+00 0.0000000000000000e+00  1.0037416806540287e+00 0.0000000000000000e+00 0.0000000000000000e+00  1.0050127950452838e+00 0.0000000000000000e+00 0.0000000000000000e+00  1.0061344141799875e+00 0.0000000000000000e+00 0.0000000000000000e+00  1.0076038840505592e+00 0.0000000000000000e+00 0.0000000000000000e+00  1.0097887802382755e+00 0.0000000000000000e+00 0.0000000000000000e+00  1.0121031464772987e+00 0.0000000000000000e+00 0.0000000000000000e+00  1.0160055164147610e+00 0.0000000000000000e+00 0.0000000000000000e+00  1.0176854961164075e+00 0.0000000000000000e+00 0.0000000000000000e+00  1.0221767528488588e+00 0.0000000000000000e+00 0.0000000000000000e+00  1.0288090371411178e+00 0.0000000000000000e+00 0.0000000000000000e+00  1.0340629637578485e+00 0.0000000000000000e+00 0.0000000000000000e+00  1.0492349907928078e+00 0.0000000000000000e+00 0.0000000000000000e+00  1.0570232522814222e+00 0.0000000000000000e+00 0.0000000000000000e+00  1.0639971950891700e+00 0.0000000000000000e+00 0.0000000000000000e+00  1.0711346153558094e+00 0.0000000000000000e+00 0.0000000000000000e+00  1.0765737149801282e+00 0.0000000000000000e+00 0.0000000000000000e+00  1.0810982293539266e+00 0.0000000000000000e+00 0.0000000000000000e+00  1.0851550350480026e+00 0.0000000000000000e+00 0.0000000000000000e+00  1.0868193864823781e+00 0.0000000000000000e+00 0.0000000000000000e+00  1.0879956832311959e+00 0.0000000000000000e+00 0.0000000000000000e+00  1.0881944574587719e+00 0.0000000000000000e+00 0.0000000000000000e+00  1.0883209111338719e+00 0.0000000000000000e+00 0.0000000000000000e+00  1.0871165564181193e+00 0.0000000000000000e+00 0.0000000000000000e+00  1.0865038319213824e+00 0.0000000000000000e+00 0.0000000000000000e+00  1.0850651713629411e+00 0.0000000000000000e+00 0.0000000000000000e+00  1.0823999159914177e+00 0.0000000000000000e+00 0.0000000000000000e+00  1.0788045677405500e+00 0.0000000000000000e+00 0.0000000000000000e+00  1.0737009398875095e+00 0.0000000000000000e+00 0.0000000000000000e+00  1.0674800293033375e+00 0.0000000000000000e+00 0.0000000000000000e+00  1.0601968178689105e+00 0.0000000000000000e+00 0.0000000000000000e+00  1.0527346863425933e+00 0.0000000000000000e+00 0.0000000000000000e+00  1.0471939259953864e+00 0.0000000000000000e+00 0.0000000000000000e+00  1.0438070938533435e+00 0.0000000000000000e+00 0.0000000000000000e+00  1.0414199655435774e+00 0.0000000000000000e+00 0.0000000000000000e+00  1.0423982452618952e+00 0.0000000000000000e+00 0.0000000000000000e+00  1.0454427690171888e+00 0.0000000000000000e+00 0.0000000000000000e+00  1.0499076038024149e+00 0.0000000000000000e+00 0.0000000000000000e+00  1.0553370833313225e+00 0.0000000000000000e+00 0.0000000000000000e+00  1.0596057927547671e+00 0.0000000000000000e+00 0.0000000000000000e+00  1.0621967168361950e+00 0.0000000000000000e+00 0.0000000000000000e+00  1.0628543616768018e+00 0.0000000000000000e+00 0.0000000000000000e+00  1.0602717855598087e+00 0.0000000000000000e+00 0.0000000000000000e+00  1.0557989148226914e+00 0.0000000000000000e+00 0.0000000000000000e+00  1.0518284417778292e+00 0.0000000000000000e+00 0.0000000000000000e+00  1.0470361311988625e+00 0.0000000000000000e+00 0.0000000000000000e+00  1.0432619234515170e+00 0.0000000000000000e+00 0.0000000000000000e+00  1.0424556579525366e+00 0.0000000000000000e+00 0.0000000000000000e+00  1.0429804852939719e+00 0.0000000000000000e+00 0.0000000000000000e+00  1.0454221157454398e+00 0.0000000000000000e+00 0.0000000000000000e+00  1.0509088850543120e+00 0.0000000000000000e+00 0.0000000000000000e+00  1.0559180501718417e+00 0.0000000000000000e+00 0.0000000000000000e+00  1.0602171811368273e+00 0.0000000000000000e+00 0.0000000000000000e+00  1.0637766894360836e+00 0.0000000000000000e+00 0.0000000000000000e+00  1.0644685906582596e+00 0.0000000000000000e+00 0.0000000000000000e+00  1.0628964840165220e+00 0.0000000000000000e+00 0.0000000000000000e+00  1.0601953678918841e+00 0.0000000000000000e+00 0.0000000000000000e+00  1.0557572294927162e+00 0.0000000000000000e+00 0.0000000000000000e+00  1.0512599982892776e+00 0.0000000000000000e+00 0.0000000000000000e+00  1.0503337060408677e+00 0.0000000000000000e+00 0.0000000000000000e+00  1.0491571477052595e+00 0.0000000000000000e+00 0.0000000000000000e+00  1.0483040248368929e+00 0.0000000000000000e+00 0.0000000000000000e+00  1.0503741656533596e+00 0.0000000000000000e+00 0.0000000000000000e+00  1.0550861569892582e+00 0.0000000000000000e+00 0.0000000000000000e+00  1.0593183083176114e+00 0.0000000000000000e+00 0.0000000000000000e+00  1.0652311932359999e+00 0.0000000000000000e+00 0.0000000000000000e+00  1.0645278516404617e+00 0.0000000000000000e+00 0.0000000000000000e+00  1.0618341647038678e+00 0.0000000000000000e+00 0.0000000000000000e+00  1.0588137299944884e+00 0.0000000000000000e+00 0.0000000000000000e+00  1.0552183519073783e+00 0.0000000000000000e+00 0.0000000000000000e+00  1.0519642572215360e+00 0.0000000000000000e+00 0.0000000000000000e+00  1.0502100470769247e+00 0.0000000000000000e+00 0.0000000000000000e+00  1.0507795520448644e+00 0.0000000000000000e+00 0.0000000000000000e+00  1.0532693448275214e+00 0.0000000000000000e+00 0.0000000000000000e+00  1.0567075164047404e+00 0.0000000000000000e+00 0.0000000000000000e+00  1.0612698314878395e+00 0.0000000000000000e+00 0.0000000000000000e+00  1.0651583461898591e+00 0.0000000000000000e+00 0.0000000000000000e+00  1.0675465253129506e+00 0.0000000000000000e+00 0.0000000000000000e+00  1.0687527326436403e+00 0.0000000000000000e+00 0.0000000000000000e+00  1.0681302376413073e+00 0.0000000000000000e+00 0.0000000000000000e+00  1.0667553970736638e+00 0.0000000000000000e+00 0.0000000000000000e+00  1.0640720997656548e+00 0.0000000000000000e+00 0.0000000000000000e+00  1.0624739557988456e+00 0.0000000000000000e+00 0.0000000000000000e+00  1.0621419173737481e+00 0.0000000000000000e+00 0.0000000000000000e+00  1.0646252218648002e+00 0.0000000000000000e+00 0.0000000000000000e+00  1.0690463521760274e+00 0.0000000000000000e+00 0.0000000000000000e+00  1.0764162887165687e+00 0.0000000000000000e+00 0.0000000000000000e+00  1.0841512057435680e+00 0.0000000000000000e+00 0.0000000000000000e+00  1.0941302712618699e+00 -8.1361519840286063e-03 0.0000000000000000e+00  1.0976018154267893e+00 -1.7998664397650084e-02 0.0000000000000000e+00  1.1039364795946192e+00 -3.1529772911270654e-02 0.0000000000000000e+00  1.1132128544318678e+00 -5.1943441007423249e-02 0.0000000000000000e+00  1.1298442991865298e+00 -8.5356491063036263e-02 0.0000000000000000e+00  1.1442941026120816e+00 -1.3134685467012708e-01 0.0000000000000000e+00  1.1323392485170229e+00 -1.8781650435428637e-01 0.0000000000000000e+00  1.0698788142495970e+00 -2.3600384661916815e-01 0.0000000000000000e+00  9.5755717008982644e-01 -2.5773507881637220e-01 0.0000000000000000e+00  8.3597595543327452e-01 -2.4575500640941478e-01 0.0000000000000000e+00  7.4984459862100372e-01 -2.2089522573827783e-01 0.0000000000000000e+00  7.2349765704759050e-01 -1.9798512771336513e-01 0.0000000000000000e+00  7.4805043900232193e-01 -1.8169597983411581e-01 0.0000000000000000e+00  8.0842510166992521e-01 -1.6110508807545360e-01 0.0000000000000000e+00  8.8235461885794664e-01 -1.3715078490256627e-01 0.0000000000000000e+00  9.5105650482765769e-01 -1.0436935370386329e-01 0.0000000000000000e+00  1.0012132452823579e+00 -7.3581116844567140e-02 0.0000000000000000e+00  1.0342708418268203e+00 -4.6122199723867580e-02 0.0000000000000000e+00  1.0536581607983453e+00 -2.6337035101427691e-02 0.0000000000000000e+00  1.0655206044516443e+00 -1.4148391026274462e-02 0.0000000000000000e+00  1.0713551433499591e+00 -7.1124396539987223e-03 0.0000000000000000e+00  1.0745857027204879e+00 -3.3311267830330371e-03 0.0000000000000000e+00  1.0752567669188722e+00 -1.2901879471785697e-03 0.0000000000000000e+00  1.0762441458862169e+00 0.0000000000000000e+00 0.0000000000000000e+00  1.0778932139554414e+00 0.0000000000000000e+00 0.0000000000000000e+00  1.0789080241969558e+00 0.0000000000000000e+00 0.0000000000000000e+00  1.0787859892089555e+00 0.0000000000000000e+00 0.0000000000000000e+00  1.0762300669464964e+00 0.0000000000000000e+00 0.0000000000000000e+00  1.0724540298862275e+00 0.0000000000000000e+00 0.0000000000000000e+00  1.0677411428668773e+00 0.0000000000000000e+00 0.0000000000000000e+00  1.0628958232980112e+00 0.0000000000000000e+00 0.0000000000000000e+00  1.0582600349493254e+00 0.0000000000000000e+00 0.0000000000000000e+00  1.0555083801726493e+00 0.0000000000000000e+00 0.0000000000000000e+00  1.0548796951659165e+00 0.0000000000000000e+00 0.0000000000000000e+00  1.0560275377651063e+00 0.0000000000000000e+00 0.0000000000000000e+00  1.0587752687615508e+00 0.0000000000000000e+00 0.0000000000000000e+00  1.0626395401805326e+00 0.0000000000000000e+00 0.0000000000000000e+00  1.0652939778132480e+00 0.0000000000000000e+00 0.0000000000000000e+00  1.0674599944597181e+00 0.0000000000000000e+00 0.0000000000000000e+00  1.0664806384100871e+00 0.0000000000000000e+00 0.0000000000000000e+00  1.0641610882753503e+00 0.0000000000000000e+00 0.0000000000000000e+00  1.0602357637807527e+00 0.0000000000000000e+00 0.0000000000000000e+00  1.0562839654332192e+00 0.0000000000000000e+00 0.0000000000000000e+00  1.0526334570883726e+00 0.0000000000000000e+00 0.0000000000000000e+00  1.0498058658908018e+00 0.0000000000000000e+00 0.0000000000000000e+00  1.0495068518634465e+00 0.0000000000000000e+00 0.0000000000000000e+00  1.0533230164372800e+00 0.0000000000000000e+00 0.0000000000000000e+00  1.0573678307372698e+00 0.0000000000000000e+00 0.0000000000000000e+00  1.0601041605163328e+00 0.0000000000000000e+00 0.0000000000000000e+00  1.0632862388744544e+00 0.0000000000000000e+00 0.0000000000000000e+00  1.0654772348987842e+00 0.0000000000000000e+00 0.0000000000000000e+00  1.0642854599388001e+00 0.0000000000000000e+00 0.0000000000000000e+00  1.0593377862610927e+00 0.0000000000000000e+00 0.0000000000000000e+00  1.0556339031663693e+00 0.0000000000000000e+00 0.0000000000000000e+00  1.0515993582868715e+00 0.0000000000000000e+00 0.0000000000000000e+00  1.0475820604594388e+00 0.0000000000000000e+00 0.0000000000000000e+00  1.0458697691552958e+00 0.0000000000000000e+00 0.0000000000000000e+00  1.0462042202401935e+00 0.0000000000000000e+00 0.0000000000000000e+00  1.0478121306728287e+00 0.0000000000000000e+00 0.0000000000000000e+00  1.0516556597102438e+00 0.0000000000000000e+00 0.0000000000000000e+00  1.0560508123196688e+00 0.0000000000000000e+00 0.0000000000000000e+00  1.0591499507072308e+00 0.0000000000000000e+00 0.0000000000000000e+00  1.0619992671580010e+00 0.0000000000000000e+00 0.0000000000000000e+00  1.0625432845496030e+00 0.0000000000000000e+00 0.0000000000000000e+00  1.0597995021469377e+00 0.0000000000000000e+00 0.0000000000000000e+00  1.0559312688363391e+00 0.0000000000000000e+00 0.0000000000000000e+00  1.0506988433885205e+00 0.0000000000000000e+00 0.0000000000000000e+00  1.0443031236319189e+00 0.0000000000000000e+00 0.0000000000000000e+00  1.0405809260653409e+00 0.0000000000000000e+00 0.0000000000000000e+00  1.0386495412610379e+00 0.0000000000000000e+00 0.0000000000000000e+00  1.0383889944845093e+00 0.0000000000000000e+00 0.0000000000000000e+00  1.0409801236144223e+00 0.0000000000000000e+00 0.0000000000000000e+00  1.0455492612011577e+00 0.0000000000000000e+00 0.0000000000000000e+00  1.0508755787678445e+00 0.0000000000000000e+00 0.0000000000000000e+00  1.0567000364343389e+00 0.0000000000000000e+00 0.0000000000000000e+00  1.0616272139034004e+00 0.0000000000000000e+00 0.0000000000000000e+00  1.0645787278539918e+00 0.0000000000000000e+00 0.0000000000000000e+00  1.0661960046914067e+00 0.0000000000000000e+00 0.0000000000000000e+00  1.0647857469086131e+00 0.0000000000000000e+00 0.0000000000000000e+00  1.0624452972262424e+00 0.0000000000000000e+00 0.0000000000000000e+00  1.0607024383882100e+00 0.0000000000000000e+00 0.0000000000000000e+00  1.0595035577366929e+00 0.0000000000000000e+00 0.0000000000000000e+00  1.0593632876715851e+00 0.0000000000000000e+00 0.0000000000000000e+00  1.0608638050684949e+00 0.0000000000000000e+00 0.0000000000000000e+00  1.0647393663738147e+00 0.0000000000000000e+00 0.0000000000000000e+00  1.0710090007477346e+00 0.0000000000000000e+00 0.0000000000000000e+00  1.0774800927725985e+00 0.0000000000000000e+00 0.0000000000000000e+00  1.0837375386778059e+00 0.0000000000000000e+00 0.0000000000000000e+00  1.0906537472417315e+00 0.0000000000000000e+00 0.0000000000000000e+00  1.0942753645308403e+00 0.0000000000000000e+00 0.0000000000000000e+00  1.0966982751670280e+00 0.0000000000000000e+00 0.0000000000000000e+00  1.0963541115868998e+00 0.0000000000000000e+00 0.0000000000000000e+00  1.0931011974791716e+00 0.0000000000000000e+00 0.0000000000000000e+00  1.0878462792021792e+00 0.0000000000000000e+00 0.0000000000000000e+00  1.0812187612323589e+00 0.0000000000000000e+00 0.0000000000000000e+00  1.0734846964452609e+00 0.0000000000000000e+00 0.0000000000000000e+00  1.0643380973504695e+00 0.0000000000000000e+00 0.0000000000000000e+00  1.0560947800293095e+00 0.0000000000000000e+00 0.0000000000000000e+00  1.0473899863636040e+00 0.0000000000000000e+00 0.0000000000000000e+00  1.0314714597360635e+00 0.0000000000000000e+00 0.0000000000000000e+00  1.0248531487079846e+00 0.0000000000000000e+00 0.0000000000000000e+00  1.0196716833561577e+00 0.0000000000000000e+00 0.0000000000000000e+00  1.0150730610468586e+00 0.0000000000000000e+00 0.0000000000000000e+00  1.0113163397833151e+00 0.0000000000000000e+00 0.0000000000000000e+00  1.0083684735072960e+00 0.0000000000000000e+00 0.0000000000000000e+00  1.0061386391177110e+00 0.0000000000000000e+00 0.0000000000000000e+00  1.0039682637327056e+00 0.0000000000000000e+00 0.0000000000000000e+00  1.0025151072584584e+00 0.0000000000000000e+00 0.0000000000000000e+00  1.0015234551093020e+00 0.0000000000000000e+00 0.0000000000000000e+00  1.0004314895862008e+00 0.0000000000000000e+00 0.0000000000000000e+00  1.0004048009870252e+00 0.0000000000000000e+00 0.0000000000000000e+00  9.9951552744414696e-01 0.0000000000000000e+00 0.0000000000000000e+00  9.9966620598488820e-01 0.0000000000000000e+00 0.0000000000000000e+00  9.9945270124377361e-01 0.0000000000000000e+00 0.0000000000000000e+00  1.0002886376307452e+00 0.0000000000000000e+00 0.0000000000000000e+00  1.0001649500386145e+00 0.0000000000000000e+00 0.0000000000000000e+00  9.9978584493869660e-01 0.0000000000000000e+00 0.0000000000000000e+00  1.0000001317219502e+00 0.0000000000000000e+00 0.0000000000000000e+00  1.0000001317219502e+00 0.0000000000000000e+00 0.0000000000000000e+00  1.0000001317219502e+00 0.0000000000000000e+00 0.0000000000000000e+00  1.0000001317219502e+00 0.0000000000000000e+00 0.0000000000000000e+00  1.0000001317219502e+00 0.0000000000000000e+00 0.0000000000000000e+00  1.0000001317219502e+00 0.0000000000000000e+00 0.0000000000000000e+00  1.0000001317219502e+00 0.0000000000000000e+00 0.0000000000000000e+00  1.0000001317219502e+00 0.0000000000000000e+00 0.0000000000000000e+00  1.0000001317219502e+00 0.0000000000000000e+00 0.0000000000000000e+00  1.0000001317219502e+00 0.0000000000000000e+00 0.0000000000000000e+00  1.0000001317219502e+00 0.0000000000000000e+00 0.0000000000000000e+00  1.0000001317219502e+00 0.0000000000000000e+00 0.0000000000000000e+00  1.0000001317219502e+00 0.0000000000000000e+00 0.0000000000000000e+00  1.0000001317219502e+00 0.0000000000000000e+00 0.0000000000000000e+00  1.0000001317219502e+00 0.0000000000000000e+00 0.0000000000000000e+00  1.0000001317219502e+00 0.0000000000000000e+00 0.0000000000000000e+00  1.0000001317219502e+00 0.0000000000000000e+00 0.0000000000000000e+00  1.0000001317219502e+00 0.0000000000000000e+00 0.0000000000000000e+00  1.0000001317219502e+00 0.0000000000000000e+00 0.0000000000000000e+00  1.0000001317219502e+00 0.0000000000000000e+00 0.0000000000000000e+00  1.0412118113899516e+00 -8.9138691602757229e-03 0.0000000000000000e+00  1.0386596437835103e+00 -1.8110657462235284e-02 0.0000000000000000e+00  1.0371507457545239e+00 -2.8373098576562963e-02 0.0000000000000000e+00  1.0324885539756663e+00 -3.9256996269507551e-02 0.0000000000000000e+00  1.0281587479486340e+00 -5.4146338908499396e-02 0.0000000000000000e+00  1.0328906015039334e+00 -5.7001623850263666e-02 0.0000000000000000e+00  1.0371490406912178e+00 -5.9859290364417797e-02 0.0000000000000000e+00  1.0424392377111389e+00 -6.2294119274934806e-02 0.0000000000000000e+00  1.0479212204478754e+00 -6.4486297120530112e-02 0.0000000000000000e+00  1.0539807769060392e+00 -6.6126591237080826e-02 0.0000000000000000e+00  1.0605432739415745e+00 -6.7308442696458345e-02 0.0000000000000000e+00  1.0674174334887778e+00 -6.7698717728496699e-02 0.0000000000000000e+00  1.0746983182253294e+00 -6.7406597423186151e-02 0.0000000000000000e+00  1.0818884159768900e+00 -6.6096117759601059e-02 0.0000000000000000e+00  1.0892180547543333e+00 -6.4048757477646226e-02 0.0000000000000000e+00  1.0962929696815815e+00 -6.1171646644197358e-02 0.0000000000000000e+00  1.1032022183867378e+00 -5.7120626880519922e-02 0.0000000000000000e+00  1.1093846114950896e+00 -5.2080466561932895e-02 0.0000000000000000e+00  1.1148760590095592e+00 -4.6408152065665731e-02 0.0000000000000000e+00  1.1195127598443417e+00 -4.0004113754358361e-02 0.0000000000000000e+00  1.1230492990033798e+00 -3.3030752189754903e-02 0.0000000000000000e+00  1.1254257582928211e+00 -2.5691289935631578e-02 0.0000000000000000e+00  1.1266412502302197e+00 -1.8295826152813693e-02 0.0000000000000000e+00  1.1266134435658777e+00 -1.0743210204805178e-02 0.0000000000000000e+00  1.1253845997662808e+00 -3.8099899618780730e-03 0.0000000000000000e+00  1.1230007928400811e+00 2.9558789158622093e-03 0.0000000000000000e+00  1.1194424804497045e+00 9.0127968972803958e-03 0.0000000000000000e+00  1.1151415089093788e+00 1.3998461584448729e-02 0.0000000000000000e+00  1.1099948644884021e+00 1.7863223279958242e-02 0.0000000000000000e+00  1.1043433917888865e+00 2.0526274195656207e-02 0.0000000000000000e+00  1.0984049675345597e+00 2.1970372229429710e-02 0.0000000000000000e+00  1.0924915284114007e+00 2.1930290343512668e-02 0.0000000000000000e+00  1.0867506449957964e+00 2.0622947752683300e-02 0.0000000000000000e+00  1.0816058143684499e+00 1.8135358500461784e-02 0.0000000000000000e+00  1.0773315882770522e+00 1.4399823299801398e-02 0.0000000000000000e+00  1.0740559146165511e+00 9.793453