<?xml version="1.0"?>
<VTKFile type="UnstructuredGrid"  version="0.1"  >
<UnstructuredGrid>
<Piece  NumberOfPoints="10199" NumberOfCells="20110">
<Points>
<DataArray  type="Float64"  NumberOfComponents="3"  format="ascii">0 -5 0  8 -5 0  30 -5 0  40 -5 0  40 5 0  30 5 0  8 5 0  0 5 0  8 -2.5 0  15 -2.5 0  30 -2.5 0  30 2.5 0  15 2.5 0  8 2.5 0  10 0.5 0  10 -0.5 0  0 0 0  0.4210526315780956 -5 0  0.8421052631563433 -5 0  1.263157894734281 -5 0  1.684210526311999 -5 0  2.105263157889717 -5 0  2.526315789467435 -5 0  2.947368421045153 -5 0  3.368421052622872 -5 0  3.78947368420059 -5 0  4.210526315779479 -5 0  4.631578947359537 -5 0  5.052631578939595 -5 0  5.473684210519653 -5 0  5.89473684209971 -5 0  6.315789473679768 -5 0  6.736842105259826 -5 0  7.157894736839884 -5 0  7.578947368419942 -5 0  8.407407407405314 -5 0  8.814814814810628 -5 0  9.222222222215942 -5 0  9.629629629621256 -5 0  10.03703703702657 -5 0  10.44444444443188 -5 0  10.8518518518372 -5 0  11.25925925924251 -5 0  11.66666666664783 -5 0  12.07407407405314 -5 0  12.48148148145846 -5 0  12.88888888886377 -5 0  13.29629629626908 -5 0  13.7037037036744 -5 0  14.11111111107971 -5 0  14.51851851848502 -5 0  14.92592592589034 -5 0  15.33333333329565 -5 0  15.74074074070096 -5 0  16.14814814810754 -5 0  16.55555555551614 -5 0  16.96296296292474 -5 0  17.37037037033335 -5 0  17.77777777774195 -5 0  18.18518518515056 -5 0  18.59259259255916 -5 0  18.99999999996776 -5 0  19.40740740737636 -5 0  19.81481481478497 -5 0  20.22222222219357 -5 0  20.62962962960217 -5 0  21.03703703701077 -5 0  21.44444444441937 -5 0  21.85185185182797 -5 0  22.25925925923657 -5 0  22.66666666664518 -5 0  23.07407407405378 -5 0  23.48148148146238 -5 0  23.88888888887098 -5 0  24.29629629627958 -5 0  24.70370370368818 -5 0  25.11111111109678 -5 0  25.51851851850539 -5 0  25.92592592591399 -5 0  26.33333333332259 -5 0  26.74074074073119 -5 0  27.14814814813979 -5 0  27.55555555554839 -5 0  27.96296296295699 -5 0  28.3703703703656 -5 0  28.7777777777742 -5 0  29.1851851851828 -5 0  29.5925925925914 -5 0  30.41666666667852 -5 0  30.83333333335704 -5 0  31.25000000003556 -5 0  31.66666666671408 -5 0  32.08333333338936 -5 0  32.50000000005308 -5 0  32.9166666667168 -5 0  33.33333333338052 -5 0  33.75000000004424 -5 0  34.16666666670795 -5 0  34.58333333337167 -5 0  35.00000000003539 -5 0  35.41666666669911 -5 0  35.83333333336282 -5 0  36.25000000002654 -5 0  36.66666666669026 -5 0  37.08333333335398 -5 0  37.50000000001769 -5 0  37.91666666668141 -5 0  38.33333333334513 -5 0  38.75000000000885 -5 0  39.16666666667257 -5 0  39.58333333333628 -5 0  40 -4.583333333332821 0  40 -4.166666666665642 0  40 -3.74999999999855 0  40 -3.333333333333135 0  40 -2.916666666667806 0  40 -2.500000000002478 0  40 -2.083333333337148 0  40 -1.666666666671818 0  40 -1.250000000006488 0  40 -0.8333333333405228 0  40 -0.4166666666733416 0  40 -6.163070054299169e-12 0  40 0.4166666666610173 0  40 0.8333333333281976 0  40 1.249999999995378 0  40 1.666666666662558 0  40 2.083333333329739 0  40 2.499999999996919 0  40 2.916666666664099 0  40 3.33333333333128 0  40 3.74999999999846 0  40 4.166666666665641 0  40 4.583333333332821 0  39.58333333333628 5 0  39.16666666667256 5 0  38.75000000000885 5 0  38.33333333334513 5 0  37.91666666668141 5 0  37.50000000001769 5 0  37.08333333335398 5 0  36.66666666669025 5 0  36.25000000002654 5 0  35.83333333336282 5 0  35.41666666669911 5 0  35.00000000003539 5 0  34.58333333337167 5 0  34.16666666670795 5 0  33.75000000004424 5 0  33.33333333338052 5 0  32.9166666667168 5 0  32.50000000005308 5 0  32.08333333338936 5 0  31.66666666671408 5 0  31.25000000003556 5 0  30.83333333335704 5 0  30.41666666667852 5 0  29.59259259259259 5 0  29.18518518518519 5 0  28.77777777777778 5 0  28.37037037037037 5 0  27.96296296296296 5 0  27.55555555555556 5 0  27.14814814814815 5 0  26.74074074074074 5 0  26.33333333333333 5 0  25.92592592592593 5 0  25.51851851851852 5 0  25.11111111111111 5 0  24.7037037037037 5 0  24.2962962962963 5 0  23.88888888888889 5 0  23.48148148148148 5 0  23.07407407407408 5 0  22.66666666666667 5 0  22.25925925925926 5 0  21.85185185185185 5 0  21.44444444444445 5 0  21.03703703703704 5 0  20.62962962962963 5 0  20.22222222222222 5 0  19.81481481481482 5 0  19.40740740740741 5 0  19 5 0  18.5925925925926 5 0  18.18518518518519 5 0  17.77777777777778 5 0  17.37037037037037 5 0  16.96296296296296 5 0  16.55555555555556 5 0  16.14814814814815 5 0  15.74074074074074 5 0  15.33333333333333 5 0  14.92592592592593 5 0  14.51851851851852 5 0  14.11111111111111 5 0  13.70370370370371 5 0  13.2962962962963 5 0  12.88888888888889 5 0  12.48148148148148 5 0  12.07407407407408 5 0  11.66666666666667 5 0  11.25925925925926 5 0  10.85185185185185 5 0  10.44444444444445 5 0  10.03703703703704 5 0  9.629629629629633 5 0  9.222222222222221 5 0  8.814814814814817 5 0  8.407407407407408 5 0  7.5789473684193 5 0  7.157894736838599 5 0  6.73684210526082 5 0  6.315789473684795 5 0  5.894736842108769 5 0  5.473684210532742 5 0  5.052631578956715 5 0  4.631578947380689 5 0  4.210526315804662 5 0  3.789473684226299 5 0  3.368421052645599 5 0  2.947368421064898 5 0  2.526315789484198 5 0  2.105263157903499 5 0  1.6842105263228 5 0  1.2631578947421 5 0  0.8421052631613994 5 0  0.4210526315806993 5 0  0 4.545454545454545 0  0 4.09090909090909 0  0 3.636363636363634 0  0 3.18181818181818 0  0 2.727272727272726 0  0 2.272727272727271 0  0 1.818181818181817 0  0 1.363636363636363 0  0 0.9090909090909092 0  0 0.454545454545455 0  0 -0.4545454545450807 0  0 -0.9090909090895867 0  0 -1.363636363633713 0  0 -1.818181818177841 0  0 -2.272727272723127 0  0 -2.727272727269273 0  0 -3.181818181815419 0  0 -3.636363636361564 0  0 -4.090909090907709 0  0 -4.545454545453855 0  8 -4.499999999999999 0  8 -3.999999999999999 0  8 -3.499999999999999 0  8 -3 0  8.137254901963859 -2.5 0  8.274509803926303 -2.5 0  8.411764705886863 -2.5 0  8.549019607849138 -2.5 0  8.686274509809513 -2.5 0  8.82352941176989 -2.5 0  8.960784313730265 -2.5 0  9.098039215690642 -2.5 0  9.235294117651017 -2.5 0  9.372549019611395 -2.5 0  9.50980392157177 -2.5 0  9.647058823532147 -2.5 0  9.784313725492522 -2.5 0  9.921568627452897 -2.5 0  10.05882352941327 -2.5 0  10.19607843137365 -2.5 0  10.33333333333402 -2.5 0  10.4705882352944 -2.5 0  10.60784313725478 -2.5 0  10.74509803921515 -2.5 0  10.88235294117553 -2.5 0  11.0196078431359 -2.5 0  11.15686274509628 -2.5 0  11.29411764705665 -2.5 0  11.43137254901703 -2.5 0  11.56862745097915 -2.5 0  11.70588235294301 -2.5 0  11.84313725490686 -2.5 0  11.98039215687072 -2.5 0  12.11764705883209 -2.5 0  12.25490196079247 -2.5 0  12.39215686275285 -2.5 0  12.52941176471322 -2.5 0  12.6666666666736 -2.5 0  12.80392156863397 -2.5 0  12.94117647059435 -2.5 0  13.07843137255473 -2.5 0  13.2156862745151 -2.5 0  13.35294117647548 -2.5 0  13.49019607843586 -2.5 0  13.62745098039623 -2.5 0  13.76470588235661 -2.5 0  13.90196078431699 -2.5 0  14.03921568627736 -2.5 0  14.17647058823774 -2.5 0  14.31372549019812 -2.5 0  14.45098039215849 -2.5 0  14.58823529411887 -2.5 0  14.72549019607925 -2.5 0  14.86274509803962 -2.5 0  15.20270270270254 -2.5 0  15.40540540540509 -2.5 0  15.60810810810763 -2.5 0  15.81081081081017 -2.5 0  16.01351351351227 -2.5 0  16.21621621621265 -2.5 0  16.41891891891279 -2.5 0  16.62162162161294 -2.5 0  16.82432432431308 -2.5 0  17.02702702701322 -2.5 0  17.22972972971337 -2.5 0  17.43243243241351 -2.5 0  17.63513513511365 -2.5 0  17.83783783781379 -2.5 0  18.04054054051394 -2.5 0  18.24324324321408 -2.5 0  18.44594594591422 -2.5 0  18.64864864861436 -2.5 0  18.85135135131451 -2.5 0  19.05405405401465 -2.5 0  19.25675675671479 -2.5 0  19.45945945941494 -2.5 0  19.66216216211508 -2.5 0  19.86486486481522 -2.5 0  20.06756756751536 -2.5 0  20.27027027021551 -2.5 0  20.47297297291565 -2.5 0  20.6756756756158 -2.5 0  20.87837837831594 -2.5 0  21.08108108101608 -2.5 0  21.28378378371622 -2.5 0  21.48648648641637 -2.5 0  21.68918918911651 -2.5 0  21.89189189181666 -2.5 0  22.0945945945168 -2.5 0  22.29729729721694 -2.5 0  22.49999999991778 -2.5 0  22.70270270262203 -2.5 0  22.90540540532697 -2.5 0  23.10810810803191 -2.5 0  23.31081081073686 -2.5 0  23.5135135134418 -2.5 0  23.71621621614674 -2.5 0  23.91891891885169 -2.5 0  24.12162162155663 -2.5 0  24.32432432426158 -2.5 0  24.52702702696652 -2.5 0  24.72972972967146 -2.5 0  24.93243243237641 -2.5 0  25.13513513508135 -2.5 0  25.3378378377863 -2.5 0  25.54054054049124 -2.5 0  25.74324324319618 -2.5 0  25.94594594590112 -2.5 0  26.14864864860607 -2.5 0  26.35135135131101 -2.5 0  26.55405405401596 -2.5 0  26.7567567567209 -2.5 0  26.95945945942584 -2.5 0  27.16216216213079 -2.5 0  27.36486486483573 -2.5 0  27.56756756754068 -2.5 0  27.77027027024562 -2.5 0  27.97297297295056 -2.5 0  28.1756756756555 -2.5 0  28.37837837836045 -2.5 0  28.5810810810654 -2.5 0  28.78378378377034 -2.5 0  28.98648648647528 -2.5 0  29.18918918918023 -2.5 0  29.39189189188517 -2.5 0  29.59459459459011 -2.5 0  29.79729729729506 -2.5 0  30 -3.000000000000001 0  30 -3.500000000000001 0  30 -4.000000000000001 0  30 -4.5 0  8 4.499999999999999 0  8 3.999999999999999 0  8 3.499999999999999 0  8 3 0  8.137254901963859 2.5 0  8.274509803926303 2.5 0  8.411764705886863 2.5 0  8.549019607849138 2.5 0  8.686274509809513 2.5 0  8.82352941176989 2.5 0  8.960784313730265 2.5 0  9.098039215690642 2.5 0  9.235294117651017 2.5 0  9.372549019611395 2.5 0  9.50980392157177 2.5 0  9.647058823532147 2.5 0  9.784313725492522 2.5 0  9.921568627452897 2.5 0  10.05882352941327 2.5 0  10.19607843137365 2.5 0  10.33333333333402 2.5 0  10.4705882352944 2.5 0  10.60784313725478 2.5 0  10.74509803921515 2.5 0  10.88235294117553 2.5 0  11.0196078431359 2.5 0  11.15686274509628 2.5 0  11.29411764705665 2.5 0  11.43137254901703 2.5 0  11.56862745097915 2.5 0  11.70588235294301 2.5 0  11.84313725490686 2.5 0  11.98039215687072 2.5 0  12.11764705883209 2.5 0  12.25490196079247 2.5 0  1
[...]
<PointData  Vectors="f_17"> 
<DataArray  type="Float64"  Name="f_17"  NumberOfComponents="3" format="ascii">1.0000001322768832e+00 0.0000000000000000e+00 0.0000000000000000e+00  1.0426915205766059e+00 0.0000000000000000e+00 0.0000000000000000e+00  1.0594250351084236e+00 0.0000000000000000e+00 0.0000000000000000e+00  1.0942349194537098e+00 0.0000000000000000e+00 0.0000000000000000e+00  1.0874945744877869e+00 0.0000000000000000e+00 0.0000000000000000e+00  1.0596807024307024e+00 0.0000000000000000e+00 0.0000000000000000e+00  1.0382649853269261e+00 0.0000000000000000e+00 0.0000000000000000e+00  1.0000001322768832e+00 0.0000000000000000e+00 0.0000000000000000e+00  1.0254063569251617e+00 -5.2170653465270743e-02 0.0000000000000000e+00  1.1381283631649324e+00 -4.5147304684812128e-03 0.0000000000000000e+00  1.0934720418973183e+00 -9.0029588009621506e-02 0.0000000000000000e+00  1.0463477687194751e+00 -7.8368793164398723e-02 0.0000000000000000e+00  9.9465227685248303e-01 -5.2066004007243372e-02 0.0000000000000000e+00  1.0173916579321276e+00 4.9532473196875870e-02 0.0000000000000000e+00  0.0000000000000000e+00 0.0000000000000000e+00 0.0000000000000000e+00  0.0000000000000000e+00 0.0000000000000000e+00 0.0000000000000000e+00  1.0000001322768832e+00 0.0000000000000000e+00 0.0000000000000000e+00  9.9929985249832232e-01 0.0000000000000000e+00 0.0000000000000000e+00  9.9877761313429558e-01 0.0000000000000000e+00 0.0000000000000000e+00  1.0008832334290632e+00 0.0000000000000000e+00 0.0000000000000000e+00  1.0007881897446016e+00 0.0000000000000000e+00 0.0000000000000000e+00  1.0018856298215246e+00 0.0000000000000000e+00 0.0000000000000000e+00  1.0023514332044690e+00 0.0000000000000000e+00 0.0000000000000000e+00  1.0028078680937789e+00 0.0000000000000000e+00 0.0000000000000000e+00  1.0037840155458633e+00 0.0000000000000000e+00 0.0000000000000000e+00  1.0051462293223437e+00 0.0000000000000000e+00 0.0000000000000000e+00  1.0063721065274986e+00 0.0000000000000000e+00 0.0000000000000000e+00  1.0079258243135814e+00 0.0000000000000000e+00 0.0000000000000000e+00  1.0101977335286074e+00 0.0000000000000000e+00 0.0000000000000000e+00  1.0125715133523678e+00 0.0000000000000000e+00 0.0000000000000000e+00  1.0165100106227052e+00 0.0000000000000000e+00 0.0000000000000000e+00  1.0182330265451456e+00 0.0000000000000000e+00 0.0000000000000000e+00  1.0227781379343541e+00 0.0000000000000000e+00 0.0000000000000000e+00  1.0294973072003615e+00 0.0000000000000000e+00 0.0000000000000000e+00  1.0348674457755747e+00 0.0000000000000000e+00 0.0000000000000000e+00  1.0504538056933455e+00 0.0000000000000000e+00 0.0000000000000000e+00  1.0584784424827796e+00 0.0000000000000000e+00 0.0000000000000000e+00  1.0656763983153410e+00 0.0000000000000000e+00 0.0000000000000000e+00  1.0729764579657857e+00 0.0000000000000000e+00 0.0000000000000000e+00  1.0783823745156074e+00 0.0000000000000000e+00 0.0000000000000000e+00  1.0826089563342582e+00 0.0000000000000000e+00 0.0000000000000000e+00  1.0860010685039596e+00 0.0000000000000000e+00 0.0000000000000000e+00  1.0865739747254577e+00 0.0000000000000000e+00 0.0000000000000000e+00  1.0862860744900542e+00 0.0000000000000000e+00 0.0000000000000000e+00  1.0848034718947777e+00 0.0000000000000000e+00 0.0000000000000000e+00  1.0832858333299022e+00 0.0000000000000000e+00 0.0000000000000000e+00  1.0808777658262450e+00 0.0000000000000000e+00 0.0000000000000000e+00  1.0799250960822362e+00 0.0000000000000000e+00 0.0000000000000000e+00  1.0793073559911464e+00 0.0000000000000000e+00 0.0000000000000000e+00  1.0786628650673487e+00 0.0000000000000000e+00 0.0000000000000000e+00  1.0780642862721601e+00 0.0000000000000000e+00 0.0000000000000000e+00  1.0764377262430838e+00 0.0000000000000000e+00 0.0000000000000000e+00  1.0734695590316070e+00 0.0000000000000000e+00 0.0000000000000000e+00  1.0685632844746411e+00 0.0000000000000000e+00 0.0000000000000000e+00  1.0620091095829709e+00 0.0000000000000000e+00 0.0000000000000000e+00  1.0557358924314859e+00 0.0000000000000000e+00 0.0000000000000000e+00  1.0499824301055485e+00 0.0000000000000000e+00 0.0000000000000000e+00  1.0439610878910404e+00 0.0000000000000000e+00 0.0000000000000000e+00  1.0407151407386084e+00 0.0000000000000000e+00 0.0000000000000000e+00  1.0396656395554285e+00 0.0000000000000000e+00 0.0000000000000000e+00  1.0410846335473221e+00 0.0000000000000000e+00 0.0000000000000000e+00  1.0451496143341830e+00 0.0000000000000000e+00 0.0000000000000000e+00  1.0501898749394649e+00 0.0000000000000000e+00 0.0000000000000000e+00  1.0555211666446809e+00 0.0000000000000000e+00 0.0000000000000000e+00  1.0604137541455054e+00 0.0000000000000000e+00 0.0000000000000000e+00  1.0624915211398112e+00 0.0000000000000000e+00 0.0000000000000000e+00  1.0620925817028601e+00 0.0000000000000000e+00 0.0000000000000000e+00  1.0607433879332986e+00 0.0000000000000000e+00 0.0000000000000000e+00  1.0566351876774869e+00 0.0000000000000000e+00 0.0000000000000000e+00  1.0516012599674160e+00 0.0000000000000000e+00 0.0000000000000000e+00  1.0478807147569502e+00 0.0000000000000000e+00 0.0000000000000000e+00  1.0446283210993768e+00 0.0000000000000000e+00 0.0000000000000000e+00  1.0431902394893342e+00 0.0000000000000000e+00 0.0000000000000000e+00  1.0455203127717294e+00 0.0000000000000000e+00 0.0000000000000000e+00  1.0487795304078880e+00 0.0000000000000000e+00 0.0000000000000000e+00  1.0532212138570693e+00 0.0000000000000000e+00 0.0000000000000000e+00  1.0587945177053082e+00 0.0000000000000000e+00 0.0000000000000000e+00  1.0628616633675847e+00 0.0000000000000000e+00 0.0000000000000000e+00  1.0651966585305330e+00 0.0000000000000000e+00 0.0000000000000000e+00  1.0660126031192565e+00 0.0000000000000000e+00 0.0000000000000000e+00  1.0638505736746979e+00 0.0000000000000000e+00 0.0000000000000000e+00  1.0598761641959749e+00 0.0000000000000000e+00 0.0000000000000000e+00  1.0577716612426553e+00 0.0000000000000000e+00 0.0000000000000000e+00  1.0541464982506166e+00 0.0000000000000000e+00 0.0000000000000000e+00  1.0501228174528057e+00 0.0000000000000000e+00 0.0000000000000000e+00  1.0491468629432055e+00 0.0000000000000000e+00 0.0000000000000000e+00  1.0516442180972607e+00 0.0000000000000000e+00 0.0000000000000000e+00  1.0549521651101119e+00 0.0000000000000000e+00 0.0000000000000000e+00  1.0637448717078890e+00 0.0000000000000000e+00 0.0000000000000000e+00  1.0662384402891718e+00 0.0000000000000000e+00 0.0000000000000000e+00  1.0670636287154995e+00 0.0000000000000000e+00 0.0000000000000000e+00  1.0669812091054067e+00 0.0000000000000000e+00 0.0000000000000000e+00  1.0649768311755283e+00 0.0000000000000000e+00 0.0000000000000000e+00  1.0617129683143334e+00 0.0000000000000000e+00 0.0000000000000000e+00  1.0582790521067504e+00 0.0000000000000000e+00 0.0000000000000000e+00  1.0562551092627619e+00 0.0000000000000000e+00 0.0000000000000000e+00  1.0557971138351474e+00 0.0000000000000000e+00 0.0000000000000000e+00  1.0568973624046640e+00 0.0000000000000000e+00 0.0000000000000000e+00  1.0601989290996581e+00 0.0000000000000000e+00 0.0000000000000000e+00  1.0644187992131711e+00 0.0000000000000000e+00 0.0000000000000000e+00  1.0684528470722074e+00 0.0000000000000000e+00 0.0000000000000000e+00  1.0722810087255548e+00 0.0000000000000000e+00 0.0000000000000000e+00  1.0745892248708491e+00 0.0000000000000000e+00 0.0000000000000000e+00  1.0758580598238794e+00 0.0000000000000000e+00 0.0000000000000000e+00  1.0748121941312672e+00 0.0000000000000000e+00 0.0000000000000000e+00  1.0736861626120948e+00 0.0000000000000000e+00 0.0000000000000000e+00  1.0724668486671605e+00 0.0000000000000000e+00 0.0000000000000000e+00  1.0729886647841085e+00 0.0000000000000000e+00 0.0000000000000000e+00  1.0747687724682558e+00 0.0000000000000000e+00 0.0000000000000000e+00  1.0796243083962342e+00 0.0000000000000000e+00 0.0000000000000000e+00  1.0857688106549173e+00 0.0000000000000000e+00 0.0000000000000000e+00  1.0947079114130480e+00 -8.8786257574079673e-03 0.0000000000000000e+00  1.0951301784610696e+00 -1.9444061582335765e-02 0.0000000000000000e+00  1.0951457820496839e+00 -3.3394539916328431e-02 0.0000000000000000e+00  1.0917714303902448e+00 -5.2988791445840656e-02 0.0000000000000000e+00  1.0865004917242791e+00 -8.4488905885359705e-02 0.0000000000000000e+00  1.0771654445233290e+00 -1.2986787346910664e-01 0.0000000000000000e+00  1.0500887503243757e+00 -1.9289446875370231e-01 0.0000000000000000e+00  9.8747919268965423e-01 -2.4937495226488776e-01 0.0000000000000000e+00  8.9148081050144823e-01 -2.8593852851545032e-01 0.0000000000000000e+00  7.9388862659961845e-01 -2.9452241950610425e-01 0.0000000000000000e+00  7.3003984898213037e-01 -2.8576040384691864e-01 0.0000000000000000e+00  7.1937540982485337e-01 -2.7065669463826630e-01 0.0000000000000000e+00  7.5880628271717465e-01 -2.5585863036686424e-01 0.0000000000000000e+00  8.3786600009750545e-01 -2.3988211787921776e-01 0.0000000000000000e+00  9.3495736100452065e-01 -2.1389687931873372e-01 0.0000000000000000e+00  1.0220285452685631e+00 -1.6669850688453033e-01 0.0000000000000000e+00  1.0750304653297760e+00 -1.1702652222322274e-01 0.0000000000000000e+00  1.0964428035052565e+00 -6.9989250962942354e-02 0.0000000000000000e+00  1.0973514287156279e+00 -3.9150761821399788e-02 0.0000000000000000e+00  1.0937749984445615e+00 -1.9557557610330727e-02 0.0000000000000000e+00  1.0907928462487386e+00 -9.2729432317340144e-03 0.0000000000000000e+00  1.0897680400820975e+00 -4.1953603293360371e-03 0.0000000000000000e+00  1.0884141055025551e+00 -1.6221024464911893e-03 0.0000000000000000e+00  1.0884993388789201e+00 0.0000000000000000e+00 0.0000000000000000e+00  1.0886856701215872e+00 0.0000000000000000e+00 0.0000000000000000e+00  1.0872853846700050e+00 0.0000000000000000e+00 0.0000000000000000e+00  1.0843295396722308e+00 0.0000000000000000e+00 0.0000000000000000e+00  1.0792423566406868e+00 0.0000000000000000e+00 0.0000000000000000e+00  1.0739918673456710e+00 0.0000000000000000e+00 0.0000000000000000e+00  1.0691656142178831e+00 0.0000000000000000e+00 0.0000000000000000e+00  1.0657187006264124e+00 0.0000000000000000e+00 0.0000000000000000e+00  1.0634965509317857e+00 0.0000000000000000e+00 0.0000000000000000e+00  1.0635255479987420e+00 0.0000000000000000e+00 0.0000000000000000e+00  1.0651448496506171e+00 0.0000000000000000e+00 0.0000000000000000e+00  1.0674451622851737e+00 0.0000000000000000e+00 0.0000000000000000e+00  1.0697597491580682e+00 0.0000000000000000e+00 0.0000000000000000e+00  1.0717838799185520e+00 0.0000000000000000e+00 0.0000000000000000e+00  1.0714304777761270e+00 0.0000000000000000e+00 0.0000000000000000e+00  1.0703003558472115e+00 0.0000000000000000e+00 0.0000000000000000e+00  1.0662935483294811e+00 0.0000000000000000e+00 0.0000000000000000e+00  1.0619625993781301e+00 0.0000000000000000e+00 0.0000000000000000e+00  1.0575411497695333e+00 0.0000000000000000e+00 0.0000000000000000e+00  1.0546428681692801e+00 0.0000000000000000e+00 0.0000000000000000e+00  1.0532568123917827e+00 0.0000000000000000e+00 0.0000000000000000e+00  1.0535309737927123e+00 0.0000000000000000e+00 0.0000000000000000e+00  1.0561035046854357e+00 0.0000000000000000e+00 0.0000000000000000e+00  1.0625265752833204e+00 0.0000000000000000e+00 0.0000000000000000e+00  1.0653941291640301e+00 0.0000000000000000e+00 0.0000000000000000e+00  1.0654805305552675e+00 0.0000000000000000e+00 0.0000000000000000e+00  1.0650782843846027e+00 0.0000000000000000e+00 0.0000000000000000e+00  1.0636090040203721e+00 0.0000000000000000e+00 0.0000000000000000e+00  1.0597048842388261e+00 0.0000000000000000e+00 0.0000000000000000e+00  1.0534722922390647e+00 0.0000000000000000e+00 0.0000000000000000e+00  1.0502412685909011e+00 0.0000000000000000e+00 0.0000000000000000e+00  1.0483062910671830e+00 0.0000000000000000e+00 0.0000000000000000e+00  1.0474669926643487e+00 0.0000000000000000e+00 0.0000000000000000e+00  1.0492666620439690e+00 0.0000000000000000e+00 0.0000000000000000e+00  1.0527081275047325e+00 0.0000000000000000e+00 0.0000000000000000e+00  1.0562709137665180e+00 0.0000000000000000e+00 0.0000000000000000e+00  1.0603850758287210e+00 0.0000000000000000e+00 0.0000000000000000e+00  1.0630952386624646e+00 0.0000000000000000e+00 0.0000000000000000e+00  1.0629505804118617e+00 0.0000000000000000e+00 0.0000000000000000e+00  1.0616046986894434e+00 0.0000000000000000e+00 0.0000000000000000e+00  1.0580417600233509e+00 0.0000000000000000e+00 0.0000000000000000e+00  1.0521754021272554e+00 0.0000000000000000e+00 0.0000000000000000e+00  1.0470706617019436e+00 0.0000000000000000e+00 0.0000000000000000e+00  1.0426463618011030e+00 0.0000000000000000e+00 0.0000000000000000e+00  1.0389189178387674e+00 0.0000000000000000e+00 0.0000000000000000e+00  1.0391121381432011e+00 0.0000000000000000e+00 0.0000000000000000e+00  1.0415404772238770e+00 0.0000000000000000e+00 0.0000000000000000e+00  1.0452541108528173e+00 0.0000000000000000e+00 0.0000000000000000e+00  1.0505534411005808e+00 0.0000000000000000e+00 0.0000000000000000e+00  1.0561211763623082e+00 0.0000000000000000e+00 0.0000000000000000e+00  1.0603914351490913e+00 0.0000000000000000e+00 0.0000000000000000e+00  1.0633572067083956e+00 0.0000000000000000e+00 0.0000000000000000e+00  1.0640992356501167e+00 0.0000000000000000e+00 0.0000000000000000e+00  1.0625150215102246e+00 0.0000000000000000e+00 0.0000000000000000e+00  1.0601622245877826e+00 0.0000000000000000e+00 0.0000000000000000e+00  1.0562171123938660e+00 0.0000000000000000e+00 0.0000000000000000e+00  1.0532270242567527e+00 0.0000000000000000e+00 0.0000000000000000e+00  1.0526442647853176e+00 0.0000000000000000e+00 0.0000000000000000e+00  1.0540705902227927e+00 0.0000000000000000e+00 0.0000000000000000e+00  1.0572843073223146e+00 0.0000000000000000e+00 0.0000000000000000e+00  1.0621804961795500e+00 0.0000000000000000e+00 0.0000000000000000e+00  1.0688659784134207e+00 0.0000000000000000e+00 0.0000000000000000e+00  1.0769750411507295e+00 0.0000000000000000e+00 0.0000000000000000e+00  1.0841655618598955e+00 0.0000000000000000e+00 0.0000000000000000e+00  1.0900846557859509e+00 0.0000000000000000e+00 0.0000000000000000e+00  1.0958698920390650e+00 0.0000000000000000e+00 0.0000000000000000e+00  1.0979261291587370e+00 0.0000000000000000e+00 0.0000000000000000e+00  1.0987053461055289e+00 0.0000000000000000e+00 0.0000000000000000e+00  1.0969036476181668e+00 0.0000000000000000e+00 0.0000000000000000e+00  1.0925252698490278e+00 0.0000000000000000e+00 0.0000000000000000e+00  1.0865592900942354e+00 0.0000000000000000e+00 0.0000000000000000e+00  1.0795809574477466e+00 0.0000000000000000e+00 0.0000000000000000e+00  1.0717713325944549e+00 0.0000000000000000e+00 0.0000000000000000e+00  1.0627524238833097e+00 0.0000000000000000e+00 0.0000000000000000e+00  1.0546995609367313e+00 0.0000000000000000e+00 0.0000000000000000e+00  1.0462170923472864e+00 0.0000000000000000e+00 0.0000000000000000e+00  1.0306881855865833e+00 0.0000000000000000e+00 0.0000000000000000e+00  1.0241832050610005e+00 0.0000000000000000e+00 0.0000000000000000e+00  1.0190767245755294e+00 0.0000000000000000e+00 0.0000000000000000e+00  1.0145241284992783e+00 0.0000000000000000e+00 0.0000000000000000e+00  1.0108140575680291e+00 0.0000000000000000e+00 0.0000000000000000e+00  1.0079077618968837e+00 0.0000000000000000e+00 0.0000000000000000e+00  1.0057358714281843e+00 0.0000000000000000e+00 0.0000000000000000e+00  1.0036421158089743e+00 0.0000000000000000e+00 0.0000000000000000e+00  1.0022768724767450e+00 0.0000000000000000e+00 0.0000000000000000e+00  1.0013926346734712e+00 0.0000000000000000e+00 0.0000000000000000e+00  1.0003968114280204e+00 0.0000000000000000e+00 0.0000000000000000e+00  1.0004461162639982e+00 0.0000000000000000e+00 0.0000000000000000e+00  9.9961067008693438e-01 0.0000000000000000e+00 0.0000000000000000e+00  9.9979005964091316e-01 0.0000000000000000e+00 0.0000000000000000e+00  9.9955993697038370e-01 0.0000000000000000e+00 0.0000000000000000e+00  1.0003745383998566e+00 0.0000000000000000e+00 0.0000000000000000e+00  1.0002085769604350e+00 0.0000000000000000e+00 0.0000000000000000e+00  9.9979256855584542e-01 0.0000000000000000e+00 0.0000000000000000e+00  1.0000001322768832e+00 0.0000000000000000e+00 0.0000000000000000e+00  1.0000001322768832e+00 0.0000000000000000e+00 0.0000000000000000e+00  1.0000001322768832e+00 0.0000000000000000e+00 0.0000000000000000e+00  1.0000001322768832e+00 0.0000000000000000e+00 0.0000000000000000e+00  1.0000001322768832e+00 0.0000000000000000e+00 0.0000000000000000e+00  1.0000001322768832e+00 0.0000000000000000e+00 0.0000000000000000e+00  1.0000001322768832e+00 0.0000000000000000e+00 0.0000000000000000e+00  1.0000001322768832e+00 0.0000000000000000e+00 0.0000000000000000e+00  1.0000001322768832e+00 0.0000000000000000e+00 0.0000000000000000e+00  1.0000001322768832e+00 0.0000000000000000e+00 0.0000000000000000e+00  1.0000001322768832e+00 0.0000000000000000e+00 0.0000000000000000e+00  1.0000001322768832e+00 0.0000000000000000e+00 0.0000000000000000e+00  1.0000001322768832e+00 0.0000000000000000e+00 0.0000000000000000e+00  1.0000001322768832e+00 0.0000000000000000e+00 0.0000000000000000e+00  1.0000001322768832e+00 0.0000000000000000e+00 0.0000000000000000e+00  1.0000001322768832e+00 0.0000000000000000e+00 0.0000000000000000e+00  1.0000001322768832e+00 0.0000000000000000e+00 0.0000000000000000e+00  1.0000001322768832e+00 0.0000000000000000e+00 0.0000000000000000e+00  1.0000001322768832e+00 0.0000000000000000e+00 0.0000000000000000e+00  1.0000001322768832e+00 0.0000000000000000e+00 0.0000000000000000e+00  1.0422034597287371e+00 -9.1801015398238033e-03 0.0000000000000000e+00  1.0395908706476111e+00 -1.8638664398921128e-02 0.0000000000000000e+00  1.0379655456806507e+00 -2.9116495665669335e-02 0.0000000000000000e+00  1.0330614260201645e+00 -4.0300680985440575e-02 0.0000000000000000e+00  1.0283717524898532e+00 -5.5657346606053190e-02 0.0000000000000000e+00  1.0331356014276156e+00 -5.8727370262770175e-02 0.0000000000000000e+00  1.0374816458674310e+00 -6.1807164857779005e-02 0.0000000000000000e+00  1.0428668027546955e+00 -6.4491963274427189e-02 0.0000000000000000e+00  1.0484903976277258e+00 -6.6941045865311050e-02 0.0000000000000000e+00  1.0547260781246748e+00 -6.8864268302593526e-02 0.0000000000000000e+00  1.0615063442748205e+00 -7.0327907308761359e-02 0.0000000000000000e+00  1.0686717988597414e+00 -7.1007985113173411e-02 0.0000000000000000e+00  1.0762892975318246e+00 -7.1010705532572327e-02 0.0000000000000000e+00  1.0839183372887640e+00 -6.9990476399649296e-02 0.0000000000000000e+00  1.0917622465605303e+00 -6.8196606133097554e-02 0.0000000000000000e+00  1.0994755672844683e+00 -6.5511250974246676e-02 0.0000000000000000e+00  1.1071046613062827e+00 -6.1611765031776226e-02 0.0000000000000000e+00  1.1141284358605668e+00 -5.6648315522826745e-02 0.0000000000000000e+00  1.1205906571069224e+00 -5.0903181260435221e-02 0.0000000000000000e+00  1.1263125770807694e+00 -4.4275430715261903e-02 0.0000000000000000e+00  1.1310204049367767e+00 -3.6853081420398649e-02 0.0000000000000000e+00  1.1346815681638251e+00 -2.8843797674805667e-02 0.0000000000000000e+00  1.1371674999776988e+00 -2.0459452841009799e-02 0.0000000000000000e+00  1.1384281169466914e+00 -1.1613629125032592e-02 0.0000000000000000e+00  1.1384040254950525e+00 -2.9875498916138326e-03 0.0000000000000000e+00  1.1370882475539941e+00 5.7592041855498701e-03 0.0000000000000000e+00  1.1343164579331655e+00 1.4219770941409122e-02 0.0000000000000000e+00  1.1304837548246884e+00 2.1996363361694197e-02 0.0000000000000000e+00  1.1253210061679331e+00 2.8963948844614298e-02 0.0000000000000000e+00  1.1191424870259914e+00 3.4997682873619575e-02 0.0000000000000000e+00  1.1120336296398785e+00 3.9930957479284462e-02 0.0000000000000000e+00  1.1042052948203773e+00 4.3410148381218719e-02 0.0000000000000000e+00  1.0958552082576249e+00 4.5559563851002918e-02 0.0000000000000000e+00  1.0872547551310567e+00 4.6289811272907599e-02 0.0000000000000000e+00  1.0787533211270883e+00 4.5352803111599449e-02 0.0000000000000000e+00  1.0705075330621490e+00 4.2927