<?xml version="1.0"?>
<VTKFile type="UnstructuredGrid"  version="0.1"  >
<UnstructuredGrid>
<Piece  NumberOfPoints="10199" NumberOfCells="20110">
<Points>
<DataArray  type="Float64"  NumberOfComponents="3"  format="ascii">0 -5 0  8 -5 0  30 -5 0  40 -5 0  40 5 0  30 5 0  8 5 0  0 5 0  8 -2.5 0  15 -2.5 0  30 -2.5 0  30 2.5 0  15 2.5 0  8 2.5 0  10 0.5 0  10 -0.5 0  0 0 0  0.4210526315780956 -5 0  0.8421052631563433 -5 0  1.263157894734281 -5 0  1.684210526311999 -5 0  2.105263157889717 -5 0  2.526315789467435 -5 0  2.947368421045153 -5 0  3.368421052622872 -5 0  3.78947368420059 -5 0  4.210526315779479 -5 0  4.631578947359537 -5 0  5.052631578939595 -5 0  5.473684210519653 -5 0  5.89473684209971 -5 0  6.315789473679768 -5 0  6.736842105259826 -5 0  7.157894736839884 -5 0  7.578947368419942 -5 0  8.407407407405314 -5 0  8.814814814810628 -5 0  9.222222222215942 -5 0  9.629629629621256 -5 0  10.03703703702657 -5 0  10.44444444443188 -5 0  10.8518518518372 -5 0  11.25925925924251 -5 0  11.66666666664783 -5 0  12.07407407405314 -5 0  12.48148148145846 -5 0  12.88888888886377 -5 0  13.29629629626908 -5 0  13.7037037036744 -5 0  14.11111111107971 -5 0  14.51851851848502 -5 0  14.92592592589034 -5 0  15.33333333329565 -5 0  15.74074074070096 -5 0  16.14814814810754 -5 0  16.55555555551614 -5 0  16.96296296292474 -5 0  17.37037037033335 -5 0  17.77777777774195 -5 0  18.18518518515056 -5 0  18.59259259255916 -5 0  18.99999999996776 -5 0  19.40740740737636 -5 0  19.81481481478497 -5 0  20.22222222219357 -5 0  20.62962962960217 -5 0  21.03703703701077 -5 0  21.44444444441937 -5 0  21.85185185182797 -5 0  22.25925925923657 -5 0  22.66666666664518 -5 0  23.07407407405378 -5 0  23.48148148146238 -5 0  23.88888888887098 -5 0  24.29629629627958 -5 0  24.70370370368818 -5 0  25.11111111109678 -5 0  25.51851851850539 -5 0  25.92592592591399 -5 0  26.33333333332259 -5 0  26.74074074073119 -5 0  27.14814814813979 -5 0  27.55555555554839 -5 0  27.96296296295699 -5 0  28.3703703703656 -5 0  28.7777777777742 -5 0  29.1851851851828 -5 0  29.5925925925914 -5 0  30.41666666667852 -5 0  30.83333333335704 -5 0  31.25000000003556 -5 0  31.66666666671408 -5 0  32.08333333338936 -5 0  32.50000000005308 -5 0  32.9166666667168 -5 0  33.33333333338052 -5 0  33.75000000004424 -5 0  34.16666666670795 -5 0  34.58333333337167 -5 0  35.00000000003539 -5 0  35.41666666669911 -5 0  35.83333333336282 -5 0  36.25000000002654 -5 0  36.66666666669026 -5 0  37.08333333335398 -5 0  37.50000000001769 -5 0  37.91666666668141 -5 0  38.33333333334513 -5 0  38.75000000000885 -5 0  39.16666666667257 -5 0  39.58333333333628 -5 0  40 -4.583333333332821 0  40 -4.166666666665642 0  40 -3.74999999999855 0  40 -3.333333333333135 0  40 -2.916666666667806 0  40 -2.500000000002478 0  40 -2.083333333337148 0  40 -1.666666666671818 0  40 -1.250000000006488 0  40 -0.8333333333405228 0  40 -0.4166666666733416 0  40 -6.163070054299169e-12 0  40 0.4166666666610173 0  40 0.8333333333281976 0  40 1.249999999995378 0  40 1.666666666662558 0  40 2.083333333329739 0  40 2.499999999996919 0  40 2.916666666664099 0  40 3.33333333333128 0  40 3.74999999999846 0  40 4.166666666665641 0  40 4.583333333332821 0  39.58333333333628 5 0  39.16666666667256 5 0  38.75000000000885 5 0  38.33333333334513 5 0  37.91666666668141 5 0  37.50000000001769 5 0  37.08333333335398 5 0  36.66666666669025 5 0  36.25000000002654 5 0  35.83333333336282 5 0  35.41666666669911 5 0  35.00000000003539 5 0  34.58333333337167 5 0  34.16666666670795 5 0  33.75000000004424 5 0  33.33333333338052 5 0  32.9166666667168 5 0  32.50000000005308 5 0  32.08333333338936 5 0  31.66666666671408 5 0  31.25000000003556 5 0  30.83333333335704 5 0  30.41666666667852 5 0  29.59259259259259 5 0  29.18518518518519 5 0  28.77777777777778 5 0  28.37037037037037 5 0  27.96296296296296 5 0  27.55555555555556 5 0  27.14814814814815 5 0  26.74074074074074 5 0  26.33333333333333 5 0  25.92592592592593 5 0  25.51851851851852 5 0  25.11111111111111 5 0  24.7037037037037 5 0  24.2962962962963 5 0  23.88888888888889 5 0  23.48148148148148 5 0  23.07407407407408 5 0  22.66666666666667 5 0  22.25925925925926 5 0  21.85185185185185 5 0  21.44444444444445 5 0  21.03703703703704 5 0  20.62962962962963 5 0  20.22222222222222 5 0  19.81481481481482 5 0  19.40740740740741 5 0  19 5 0  18.5925925925926 5 0  18.18518518518519 5 0  17.77777777777778 5 0  17.37037037037037 5 0  16.96296296296296 5 0  16.55555555555556 5 0  16.14814814814815 5 0  15.74074074074074 5 0  15.33333333333333 5 0  14.92592592592593 5 0  14.51851851851852 5 0  14.11111111111111 5 0  13.70370370370371 5 0  13.2962962962963 5 0  12.88888888888889 5 0  12.48148148148148 5 0  12.07407407407408 5 0  11.66666666666667 5 0  11.25925925925926 5 0  10.85185185185185 5 0  10.44444444444445 5 0  10.03703703703704 5 0  9.629629629629633 5 0  9.222222222222221 5 0  8.814814814814817 5 0  8.407407407407408 5 0  7.5789473684193 5 0  7.157894736838599 5 0  6.73684210526082 5 0  6.315789473684795 5 0  5.894736842108769 5 0  5.473684210532742 5 0  5.052631578956715 5 0  4.631578947380689 5 0  4.210526315804662 5 0  3.789473684226299 5 0  3.368421052645599 5 0  2.947368421064898 5 0  2.526315789484198 5 0  2.105263157903499 5 0  1.6842105263228 5 0  1.2631578947421 5 0  0.8421052631613994 5 0  0.4210526315806993 5 0  0 4.545454545454545 0  0 4.09090909090909 0  0 3.636363636363634 0  0 3.18181818181818 0  0 2.727272727272726 0  0 2.272727272727271 0  0 1.818181818181817 0  0 1.363636363636363 0  0 0.9090909090909092 0  0 0.454545454545455 0  0 -0.4545454545450807 0  0 -0.9090909090895867 0  0 -1.363636363633713 0  0 -1.818181818177841 0  0 -2.272727272723127 0  0 -2.727272727269273 0  0 -3.181818181815419 0  0 -3.636363636361564 0  0 -4.090909090907709 0  0 -4.545454545453855 0  8 -4.499999999999999 0  8 -3.999999999999999 0  8 -3.499999999999999 0  8 -3 0  8.137254901963859 -2.5 0  8.274509803926303 -2.5 0  8.411764705886863 -2.5 0  8.549019607849138 -2.5 0  8.686274509809513 -2.5 0  8.82352941176989 -2.5 0  8.960784313730265 -2.5 0  9.098039215690642 -2.5 0  9.235294117651017 -2.5 0  9.372549019611395 -2.5 0  9.50980392157177 -2.5 0  9.647058823532147 -2.5 0  9.784313725492522 -2.5 0  9.921568627452897 -2.5 0  10.05882352941327 -2.5 0  10.19607843137365 -2.5 0  10.33333333333402 -2.5 0  10.4705882352944 -2.5 0  10.60784313725478 -2.5 0  10.74509803921515 -2.5 0  10.88235294117553 -2.5 0  11.0196078431359 -2.5 0  11.15686274509628 -2.5 0  11.29411764705665 -2.5 0  11.43137254901703 -2.5 0  11.56862745097915 -2.5 0  11.70588235294301 -2.5 0  11.84313725490686 -2.5 0  11.98039215687072 -2.5 0  12.11764705883209 -2.5 0  12.25490196079247 -2.5 0  12.39215686275285 -2.5 0  12.52941176471322 -2.5 0  12.6666666666736 -2.5 0  12.80392156863397 -2.5 0  12.94117647059435 -2.5 0  13.07843137255473 -2.5 0  13.2156862745151 -2.5 0  13.35294117647548 -2.5 0  13.49019607843586 -2.5 0  13.62745098039623 -2.5 0  13.76470588235661 -2.5 0  13.90196078431699 -2.5 0  14.03921568627736 -2.5 0  14.17647058823774 -2.5 0  14.31372549019812 -2.5 0  14.45098039215849 -2.5 0  14.58823529411887 -2.5 0  14.72549019607925 -2.5 0  14.86274509803962 -2.5 0  15.20270270270254 -2.5 0  15.40540540540509 -2.5 0  15.60810810810763 -2.5 0  15.81081081081017 -2.5 0  16.01351351351227 -2.5 0  16.21621621621265 -2.5 0  16.41891891891279 -2.5 0  16.62162162161294 -2.5 0  16.82432432431308 -2.5 0  17.02702702701322 -2.5 0  17.22972972971337 -2.5 0  17.43243243241351 -2.5 0  17.63513513511365 -2.5 0  17.83783783781379 -2.5 0  18.04054054051394 -2.5 0  18.24324324321408 -2.5 0  18.44594594591422 -2.5 0  18.64864864861436 -2.5 0  18.85135135131451 -2.5 0  19.05405405401465 -2.5 0  19.25675675671479 -2.5 0  19.45945945941494 -2.5 0  19.66216216211508 -2.5 0  19.86486486481522 -2.5 0  20.06756756751536 -2.5 0  20.27027027021551 -2.5 0  20.47297297291565 -2.5 0  20.6756756756158 -2.5 0  20.87837837831594 -2.5 0  21.08108108101608 -2.5 0  21.28378378371622 -2.5 0  21.48648648641637 -2.5 0  21.68918918911651 -2.5 0  21.89189189181666 -2.5 0  22.0945945945168 -2.5 0  22.29729729721694 -2.5 0  22.49999999991778 -2.5 0  22.70270270262203 -2.5 0  22.90540540532697 -2.5 0  23.10810810803191 -2.5 0  23.31081081073686 -2.5 0  23.5135135134418 -2.5 0  23.71621621614674 -2.5 0  23.91891891885169 -2.5 0  24.12162162155663 -2.5 0  24.32432432426158 -2.5 0  24.52702702696652 -2.5 0  24.72972972967146 -2.5 0  24.93243243237641 -2.5 0  25.13513513508135 -2.5 0  25.3378378377863 -2.5 0  25.54054054049124 -2.5 0  25.74324324319618 -2.5 0  25.94594594590112 -2.5 0  26.14864864860607 -2.5 0  26.35135135131101 -2.5 0  26.55405405401596 -2.5 0  26.7567567567209 -2.5 0  26.95945945942584 -2.5 0  27.16216216213079 -2.5 0  27.36486486483573 -2.5 0  27.56756756754068 -2.5 0  27.77027027024562 -2.5 0  27.97297297295056 -2.5 0  28.1756756756555 -2.5 0  28.37837837836045 -2.5 0  28.5810810810654 -2.5 0  28.78378378377034 -2.5 0  28.98648648647528 -2.5 0  29.18918918918023 -2.5 0  29.39189189188517 -2.5 0  29.59459459459011 -2.5 0  29.79729729729506 -2.5 0  30 -3.000000000000001 0  30 -3.500000000000001 0  30 -4.000000000000001 0  30 -4.5 0  8 4.499999999999999 0  8 3.999999999999999 0  8 3.499999999999999 0  8 3 0  8.137254901963859 2.5 0  8.274509803926303 2.5 0  8.411764705886863 2.5 0  8.549019607849138 2.5 0  8.686274509809513 2.5 0  8.82352941176989 2.5 0  8.960784313730265 2.5 0  9.098039215690642 2.5 0  9.235294117651017 2.5 0  9.372549019611395 2.5 0  9.50980392157177 2.5 0  9.647058823532147 2.5 0  9.784313725492522 2.5 0  9.921568627452897 2.5 0  10.05882352941327 2.5 0  10.19607843137365 2.5 0  10.33333333333402 2.5 0  10.4705882352944 2.5 0  10.60784313725478 2.5 0  10.74509803921515 2.5 0  10.88235294117553 2.5 0  11.0196078431359 2.5 0  11.15686274509628 2.5 0  11.29411764705665 2.5 0  11.43137254901703 2.5 0  11.56862745097915 2.5 0  11.70588235294301 2.5 0  11.84313725490686 2.5 0  11.98039215687072 2.5 0  12.11764705883209 2.5 0  12.25490196079247 2.5 0  1
[...]
<PointData  Vectors="f_17"> 
<DataArray  type="Float64"  Name="f_17"  NumberOfComponents="3" format="ascii">1.0000001315198519e+00 0.0000000000000000e+00 0.0000000000000000e+00  1.0413846884941182e+00 0.0000000000000000e+00 0.0000000000000000e+00  1.0639487100602669e+00 0.0000000000000000e+00 0.0000000000000000e+00  1.0936819852106370e+00 0.0000000000000000e+00 0.0000000000000000e+00  1.0740257580383188e+00 0.0000000000000000e+00 0.0000000000000000e+00  1.0502364863522122e+00 0.0000000000000000e+00 0.0000000000000000e+00  1.0395347023080337e+00 0.0000000000000000e+00 0.0000000000000000e+00  1.0000001315198519e+00 0.0000000000000000e+00 0.0000000000000000e+00  1.0248649691622851e+00 -5.0563872795883702e-02 0.0000000000000000e+00  1.1123157070932848e+00 7.2124406145117573e-02 0.0000000000000000e+00  1.1548641773801600e+00 -3.3679316544628718e-02 0.0000000000000000e+00  9.9071374645787114e-01 -3.0978619968320999e-02 0.0000000000000000e+00  9.9408644138738478e-01 1.8988860265539680e-02 0.0000000000000000e+00  1.0179603660170387e+00 5.1113654761039476e-02 0.0000000000000000e+00  0.0000000000000000e+00 0.0000000000000000e+00 0.0000000000000000e+00  0.0000000000000000e+00 0.0000000000000000e+00 0.0000000000000000e+00  1.0000001315198519e+00 0.0000000000000000e+00 0.0000000000000000e+00  9.9931273384155028e-01 0.0000000000000000e+00 0.0000000000000000e+00  9.9882837923400714e-01 0.0000000000000000e+00 0.0000000000000000e+00  1.0009640198836216e+00 0.0000000000000000e+00 0.0000000000000000e+00  1.0008959266523838e+00 0.0000000000000000e+00 0.0000000000000000e+00  1.0019891109994945e+00 0.0000000000000000e+00 0.0000000000000000e+00  1.0024185087209412e+00 0.0000000000000000e+00 0.0000000000000000e+00  1.0027932861577289e+00 0.0000000000000000e+00 0.0000000000000000e+00  1.0036545982773779e+00 0.0000000000000000e+00 0.0000000000000000e+00  1.0048967599144720e+00 0.0000000000000000e+00 0.0000000000000000e+00  1.0059910564580770e+00 0.0000000000000000e+00 0.0000000000000000e+00  1.0074371205131734e+00 0.0000000000000000e+00 0.0000000000000000e+00  1.0096020886828194e+00 0.0000000000000000e+00 0.0000000000000000e+00  1.0119002644978057e+00 0.0000000000000000e+00 0.0000000000000000e+00  1.0157893800510793e+00 0.0000000000000000e+00 0.0000000000000000e+00  1.0174537451267858e+00 0.0000000000000000e+00 0.0000000000000000e+00  1.0219286916060164e+00 0.0000000000000000e+00 0.0000000000000000e+00  1.0285422842158880e+00 0.0000000000000000e+00 0.0000000000000000e+00  1.0337747445694343e+00 0.0000000000000000e+00 0.0000000000000000e+00  1.0489028601784258e+00 0.0000000000000000e+00 0.0000000000000000e+00  1.0566873502256353e+00 0.0000000000000000e+00 0.0000000000000000e+00  1.0636813953249773e+00 0.0000000000000000e+00 0.0000000000000000e+00  1.0708743376333481e+00 0.0000000000000000e+00 0.0000000000000000e+00  1.0764226493880742e+00 0.0000000000000000e+00 0.0000000000000000e+00  1.0811192434644368e+00 0.0000000000000000e+00 0.0000000000000000e+00  1.0854122226769372e+00 0.0000000000000000e+00 0.0000000000000000e+00  1.0873658393796535e+00 0.0000000000000000e+00 0.0000000000000000e+00  1.0888552507749145e+00 0.0000000000000000e+00 0.0000000000000000e+00  1.0893325801377114e+00 0.0000000000000000e+00 0.0000000000000000e+00  1.0896410839704689e+00 0.0000000000000000e+00 0.0000000000000000e+00  1.0884473466784912e+00 0.0000000000000000e+00 0.0000000000000000e+00  1.0876301073949526e+00 0.0000000000000000e+00 0.0000000000000000e+00  1.0857563015905234e+00 0.0000000000000000e+00 0.0000000000000000e+00  1.0824926586324757e+00 0.0000000000000000e+00 0.0000000000000000e+00  1.0782289537206919e+00 0.0000000000000000e+00 0.0000000000000000e+00  1.0725123108055110e+00 0.0000000000000000e+00 0.0000000000000000e+00  1.0658709307192165e+00 0.0000000000000000e+00 0.0000000000000000e+00  1.0584503223012289e+00 0.0000000000000000e+00 0.0000000000000000e+00  1.0511865482992198e+00 0.0000000000000000e+00 0.0000000000000000e+00  1.0461573384293537e+00 0.0000000000000000e+00 0.0000000000000000e+00  1.0435149053489261e+00 0.0000000000000000e+00 0.0000000000000000e+00  1.0419892467396499e+00 0.0000000000000000e+00 0.0000000000000000e+00  1.0437672181142712e+00 0.0000000000000000e+00 0.0000000000000000e+00  1.0473999823718709e+00 0.0000000000000000e+00 0.0000000000000000e+00  1.0520854521695866e+00 0.0000000000000000e+00 0.0000000000000000e+00  1.0573062896757053e+00 0.0000000000000000e+00 0.0000000000000000e+00  1.0609529499634418e+00 0.0000000000000000e+00 0.0000000000000000e+00  1.0626566922442533e+00 0.0000000000000000e+00 0.0000000000000000e+00  1.0623382408510675e+00 0.0000000000000000e+00 0.0000000000000000e+00  1.0589431592855125e+00 0.0000000000000000e+00 0.0000000000000000e+00  1.0539679605869685e+00 0.0000000000000000e+00 0.0000000000000000e+00  1.0499124125283827e+00 0.0000000000000000e+00 0.0000000000000000e+00  1.0454310165192748e+00 0.0000000000000000e+00 0.0000000000000000e+00  1.0422822510384586e+00 0.0000000000000000e+00 0.0000000000000000e+00  1.0422926011142446e+00 0.0000000000000000e+00 0.0000000000000000e+00  1.0436350947329884e+00 0.0000000000000000e+00 0.0000000000000000e+00  1.0467307482987951e+00 0.0000000000000000e+00 0.0000000000000000e+00  1.0525652872637317e+00 0.0000000000000000e+00 0.0000000000000000e+00  1.0575453440412004e+00 0.0000000000000000e+00 0.0000000000000000e+00  1.0614261437645027e+00 0.0000000000000000e+00 0.0000000000000000e+00  1.0642814098186126e+00 0.0000000000000000e+00 0.0000000000000000e+00  1.0641739087233046e+00 0.0000000000000000e+00 0.0000000000000000e+00  1.0619087863499044e+00 0.0000000000000000e+00 0.0000000000000000e+00  1.0587853127344442e+00 0.0000000000000000e+00 0.0000000000000000e+00  1.0542771804001152e+00 0.0000000000000000e+00 0.0000000000000000e+00  1.0500675287924042e+00 0.0000000000000000e+00 0.0000000000000000e+00  1.0496989390155278e+00 0.0000000000000000e+00 0.0000000000000000e+00  1.0491984726268153e+00 0.0000000000000000e+00 0.0000000000000000e+00  1.0490079844708584e+00 0.0000000000000000e+00 0.0000000000000000e+00  1.0515604402498628e+00 0.0000000000000000e+00 0.0000000000000000e+00  1.0564746420436633e+00 0.0000000000000000e+00 0.0000000000000000e+00  1.0605759707664701e+00 0.0000000000000000e+00 0.0000000000000000e+00  1.0654159537974328e+00 0.0000000000000000e+00 0.0000000000000000e+00  1.0640305950158695e+00 0.0000000000000000e+00 0.0000000000000000e+00  1.0607856647372260e+00 0.0000000000000000e+00 0.0000000000000000e+00  1.0574929674972393e+00 0.0000000000000000e+00 0.0000000000000000e+00  1.0540096745809826e+00 0.0000000000000000e+00 0.0000000000000000e+00  1.0511696604899470e+00 0.0000000000000000e+00 0.0000000000000000e+00  1.0500694991329431e+00 0.0000000000000000e+00 0.0000000000000000e+00  1.0513062276693257e+00 0.0000000000000000e+00 0.0000000000000000e+00  1.0543585067732231e+00 0.0000000000000000e+00 0.0000000000000000e+00  1.0580789801554806e+00 0.0000000000000000e+00 0.0000000000000000e+00  1.0626061166788459e+00 0.0000000000000000e+00 0.0000000000000000e+00  1.0661255892772015e+00 0.0000000000000000e+00 0.0000000000000000e+00  1.0679494679334824e+00 0.0000000000000000e+00 0.0000000000000000e+00  1.0685243800742155e+00 0.0000000000000000e+00 0.0000000000000000e+00  1.0673665907376597e+00 0.0000000000000000e+00 0.0000000000000000e+00  1.0656625488990918e+00 0.0000000000000000e+00 0.0000000000000000e+00  1.0629701970042129e+00 0.0000000000000000e+00 0.0000000000000000e+00  1.0616650065284605e+00 0.0000000000000000e+00 0.0000000000000000e+00  1.0618857514038016e+00 0.0000000000000000e+00 0.0000000000000000e+00  1.0650370886963467e+00 0.0000000000000000e+00 0.0000000000000000e+00  1.0700690933494048e+00 0.0000000000000000e+00 0.0000000000000000e+00  1.0777951608859384e+00 0.0000000000000000e+00 0.0000000000000000e+00  1.0855054632956076e+00 0.0000000000000000e+00 0.0000000000000000e+00  1.0952431476973536e+00 -7.4894211551840041e-03 0.0000000000000000e+00  1.0993422125783887e+00 -1.6547208839945565e-02 0.0000000000000000e+00  1.1070455196333882e+00 -2.8972349108400203e-02 0.0000000000000000e+00  1.1191158056949486e+00 -4.7784055615921979e-02 0.0000000000000000e+00  1.1401047896686072e+00 -7.8184244298740588e-02 0.0000000000000000e+00  1.1588144897520909e+00 -1.1962401417847354e-01 0.0000000000000000e+00  1.1498693869962542e+00 -1.6899533084426666e-01 0.0000000000000000e+00  1.0872928399767370e+00 -2.0980350279476051e-01 0.0000000000000000e+00  9.7085618263066342e-01 -2.2440187192599723e-01 0.0000000000000000e+00  8.4209364967983413e-01 -2.0676311425781849e-01 0.0000000000000000e+00  7.4880753507004782e-01 -1.7901965711350878e-01 0.0000000000000000e+00  7.1830355539772650e-01 -1.5582230852799805e-01 0.0000000000000000e+00  7.4065428592724691e-01 -1.4238073117639863e-01 0.0000000000000000e+00  7.9803768793891872e-01 -1.2850778651781108e-01 0.0000000000000000e+00  8.6890598976874156e-01 -1.1315051899744295e-01 0.0000000000000000e+00  9.3706700487137762e-01 -8.6705222745585453e-02 0.0000000000000000e+00  9.8907541986644998e-01 -6.0513719598368050e-02 0.0000000000000000e+00  1.0250676860238899e+00 -3.7775168980738988e-02 0.0000000000000000e+00  1.0475333328380119e+00 -2.1035722607642353e-02 0.0000000000000000e+00  1.0617361743884886e+00 -1.0996659353105207e-02 0.0000000000000000e+00  1.0690120822440230e+00 -5.2111552547337691e-03 0.0000000000000000e+00  1.0730659355845322e+00 -2.2247569871113662e-03 0.0000000000000000e+00  1.0741822998912942e+00 -7.8213675047966291e-04 0.0000000000000000e+00  1.0749732623163075e+00 0.0000000000000000e+00 0.0000000000000000e+00  1.0766007483523532e+00 0.0000000000000000e+00 0.0000000000000000e+00  1.0779092332974642e+00 0.0000000000000000e+00 0.0000000000000000e+00  1.0783416763679574e+00 0.0000000000000000e+00 0.0000000000000000e+00  1.0764534451174679e+00 0.0000000000000000e+00 0.0000000000000000e+00  1.0732640109822769e+00 0.0000000000000000e+00 0.0000000000000000e+00  1.0689154238766674e+00 0.0000000000000000e+00 0.0000000000000000e+00  1.0640811323636152e+00 0.0000000000000000e+00 0.0000000000000000e+00  1.0591099680537306e+00 0.0000000000000000e+00 0.0000000000000000e+00  1.0557671324714049e+00 0.0000000000000000e+00 0.0000000000000000e+00  1.0544559915543033e+00 0.0000000000000000e+00 0.0000000000000000e+00  1.0549992700807855e+00 0.0000000000000000e+00 0.0000000000000000e+00  1.0573963202556111e+00 0.0000000000000000e+00 0.0000000000000000e+00  1.0612390980598121e+00 0.0000000000000000e+00 0.0000000000000000e+00  1.0642255395000666e+00 0.0000000000000000e+00 0.0000000000000000e+00  1.0669530539131191e+00 0.0000000000000000e+00 0.0000000000000000e+00  1.0666551285970389e+00 0.0000000000000000e+00 0.0000000000000000e+00  1.0649553054227443e+00 0.0000000000000000e+00 0.0000000000000000e+00  1.0614261126203699e+00 0.0000000000000000e+00 0.0000000000000000e+00  1.0575698991589237e+00 0.0000000000000000e+00 0.0000000000000000e+00  1.0536888372397053e+00 0.0000000000000000e+00 0.0000000000000000e+00  1.0503324198999422e+00 0.0000000000000000e+00 0.0000000000000000e+00  1.0493793860730867e+00 0.0000000000000000e+00 0.0000000000000000e+00  1.0520660636021659e+00 0.0000000000000000e+00 0.0000000000000000e+00  1.0559293134215570e+00 0.0000000000000000e+00 0.0000000000000000e+00  1.0588400302469534e+00 0.0000000000000000e+00 0.0000000000000000e+00  1.0625246810235862e+00 0.0000000000000000e+00 0.0000000000000000e+00  1.0654329442084762e+00 0.0000000000000000e+00 0.0000000000000000e+00  1.0649607942827013e+00 0.0000000000000000e+00 0.0000000000000000e+00  1.0605840767761230e+00 0.0000000000000000e+00 0.0000000000000000e+00  1.0571353571103048e+00 0.0000000000000000e+00 0.0000000000000000e+00  1.0529896852757183e+00 0.0000000000000000e+00 0.0000000000000000e+00  1.0485322480662542e+00 0.0000000000000000e+00 0.0000000000000000e+00  1.0461560769341389e+00 0.0000000000000000e+00 0.0000000000000000e+00  1.0457360206769997e+00 0.0000000000000000e+00 0.0000000000000000e+00  1.0466695011116713e+00 0.0000000000000000e+00 0.0000000000000000e+00  1.0500730166601762e+00 0.0000000000000000e+00 0.0000000000000000e+00  1.0543862320782909e+00 0.0000000000000000e+00 0.0000000000000000e+00  1.0577770368293189e+00 0.0000000000000000e+00 0.0000000000000000e+00  1.0612772370419061e+00 0.0000000000000000e+00 0.0000000000000000e+00  1.0626731603194863e+00 0.0000000000000000e+00 0.0000000000000000e+00  1.0608034418358629e+00 0.0000000000000000e+00 0.0000000000000000e+00  1.0575837062598399e+00 0.0000000000000000e+00 0.0000000000000000e+00  1.0526429152170911e+00 0.0000000000000000e+00 0.0000000000000000e+00  1.0461131518097224e+00 0.0000000000000000e+00 0.0000000000000000e+00  1.0418606640177266e+00 0.0000000000000000e+00 0.0000000000000000e+00  1.0391317253355739e+00 0.0000000000000000e+00 0.0000000000000000e+00  1.0379542254844414e+00 0.0000000000000000e+00 0.0000000000000000e+00  1.0397136098139692e+00 0.0000000000000000e+00 0.0000000000000000e+00  1.0436684848327360e+00 0.0000000000000000e+00 0.0000000000000000e+00  1.0487388461971454e+00 0.0000000000000000e+00 0.0000000000000000e+00  1.0547013581099869e+00 0.0000000000000000e+00 0.0000000000000000e+00  1.0601594981339117e+00 0.0000000000000000e+00 0.0000000000000000e+00  1.0639105138100393e+00 0.0000000000000000e+00 0.0000000000000000e+00  1.0664452746682789e+00 0.0000000000000000e+00 0.0000000000000000e+00  1.0658557222524225e+00 0.0000000000000000e+00 0.0000000000000000e+00  1.0640722133920066e+00 0.0000000000000000e+00 0.0000000000000000e+00  1.0625217293417331e+00 0.0000000000000000e+00 0.0000000000000000e+00  1.0611367889692982e+00 0.0000000000000000e+00 0.0000000000000000e+00  1.0605191770169835e+00 0.0000000000000000e+00 0.0000000000000000e+00  1.0613709988812956e+00 0.0000000000000000e+00 0.0000000000000000e+00  1.0645772281890233e+00 0.0000000000000000e+00 0.0000000000000000e+00  1.0702728626061124e+00 0.0000000000000000e+00 0.0000000000000000e+00  1.0763421786799934e+00 0.0000000000000000e+00 0.0000000000000000e+00  1.0824168976976076e+00 0.0000000000000000e+00 0.0000000000000000e+00  1.0893483956663184e+00 0.0000000000000000e+00 0.0000000000000000e+00  1.0931429657465865e+00 0.0000000000000000e+00 0.0000000000000000e+00  1.0958290320824648e+00 0.0000000000000000e+00 0.0000000000000000e+00  1.0957838294505093e+00 0.0000000000000000e+00 0.0000000000000000e+00  1.0928119207232361e+00 0.0000000000000000e+00 0.0000000000000000e+00  1.0877907267174447e+00 0.0000000000000000e+00 0.0000000000000000e+00  1.0813380547713773e+00 0.0000000000000000e+00 0.0000000000000000e+00  1.0737167179243317e+00 0.0000000000000000e+00 0.0000000000000000e+00  1.0646311046398098e+00 0.0000000000000000e+00 0.0000000000000000e+00  1.0564122434281358e+00 0.0000000000000000e+00 0.0000000000000000e+00  1.0477067399172468e+00 0.0000000000000000e+00 0.0000000000000000e+00  1.0317516728433738e+00 0.0000000000000000e+00 0.0000000000000000e+00  1.0251130371140973e+00 0.0000000000000000e+00 0.0000000000000000e+00  1.0199139683193590e+00 0.0000000000000000e+00 0.0000000000000000e+00  1.0153010874382669e+00 0.0000000000000000e+00 0.0000000000000000e+00  1.0115302580642398e+00 0.0000000000000000e+00 0.0000000000000000e+00  1.0085693622958791e+00 0.0000000000000000e+00 0.0000000000000000e+00  1.0063236405013485e+00 0.0000000000000000e+00 0.0000000000000000e+00  1.0041346927391113e+00 0.0000000000000000e+00 0.0000000000000000e+00  1.0026568977893593e+00 0.0000000000000000e+00 0.0000000000000000e+00  1.0016377641657721e+00 0.0000000000000000e+00 0.0000000000000000e+00  1.0005172277221468e+00 0.0000000000000000e+00 0.0000000000000000e+00  1.0004627806364161e+00 0.0000000000000000e+00 0.0000000000000000e+00  9.9954814555401617e-01 0.0000000000000000e+00 0.0000000000000000e+00  9.9968002705749504e-01 0.0000000000000000e+00 0.0000000000000000e+00  9.9945604667418342e-01 0.0000000000000000e+00 0.0000000000000000e+00  1.0002849633567805e+00 0.0000000000000000e+00 0.0000000000000000e+00  1.0001616486683871e+00 0.0000000000000000e+00 0.0000000000000000e+00  9.9978522478612619e-01 0.0000000000000000e+00 0.0000000000000000e+00  1.0000001315198519e+00 0.0000000000000000e+00 0.0000000000000000e+00  1.0000001315198519e+00 0.0000000000000000e+00 0.0000000000000000e+00  1.0000001315198519e+00 0.0000000000000000e+00 0.0000000000000000e+00  1.0000001315198519e+00 0.0000000000000000e+00 0.0000000000000000e+00  1.0000001315198519e+00 0.0000000000000000e+00 0.0000000000000000e+00  1.0000001315198519e+00 0.0000000000000000e+00 0.0000000000000000e+00  1.0000001315198519e+00 0.0000000000000000e+00 0.0000000000000000e+00  1.0000001315198519e+00 0.0000000000000000e+00 0.0000000000000000e+00  1.0000001315198519e+00 0.0000000000000000e+00 0.0000000000000000e+00  1.0000001315198519e+00 0.0000000000000000e+00 0.0000000000000000e+00  1.0000001315198519e+00 0.0000000000000000e+00 0.0000000000000000e+00  1.0000001315198519e+00 0.0000000000000000e+00 0.0000000000000000e+00  1.0000001315198519e+00 0.0000000000000000e+00 0.0000000000000000e+00  1.0000001315198519e+00 0.0000000000000000e+00 0.0000000000000000e+00  1.0000001315198519e+00 0.0000000000000000e+00 0.0000000000000000e+00  1.0000001315198519e+00 0.0000000000000000e+00 0.0000000000000000e+00  1.0000001315198519e+00 0.0000000000000000e+00 0.0000000000000000e+00  1.0000001315198519e+00 0.0000000000000000e+00 0.0000000000000000e+00  1.0000001315198519e+00 0.0000000000000000e+00 0.0000000000000000e+00  1.0000001315198519e+00 0.0000000000000000e+00 0.0000000000000000e+00  1.0408900711394868e+00 -8.8834845171276468e-03 0.0000000000000000e+00  1.0383190585856859e+00 -1.8043378401366415e-02 0.0000000000000000e+00  1.0367849203126460e+00 -2.8257825580183082e-02 0.0000000000000000e+00  1.0321009347989778e+00 -3.9063294412020576e-02 0.0000000000000000e+00  1.0277441477698666e+00 -5.3830727290931621e-02 0.0000000000000000e+00  1.0324445047418465e+00 -5.6672899901420701e-02 0.0000000000000000e+00  1.0366648809134016e+00 -5.9520263551700654e-02 0.0000000000000000e+00  1.0419134308120908e+00 -6.1946444127606234e-02 0.0000000000000000e+00  1.0473476371203791e+00 -6.4134274974377140e-02 0.0000000000000000e+00  1.0533537419235670e+00 -6.5773028820324916e-02 0.0000000000000000e+00  1.0598572373742823e+00 -6.6960047255577693e-02 0.0000000000000000e+00  1.0666625747089953e+00 -6.7362176960609657e-02 0.0000000000000000e+00  1.0738695243501148e+00 -6.7089210553937129e-02 0.0000000000000000e+00  1.0809739098101625e+00 -6.5807742734265512e-02 0.0000000000000000e+00  1.0882101102104207e+00 -6.3803880941714269e-02 0.0000000000000000e+00  1.0951785497651065e+00 -6.0989141860876346e-02 0.0000000000000000e+00  1.1019757091980869e+00 -5.7017487696526661e-02 0.0000000000000000e+00  1.1080377535816703e+00 -5.2079186405146048e-02 0.0000000000000000e+00  1.1134006341957006e+00 -4.6541749397356745e-02 0.0000000000000000e+00  1.1179054256528016e+00 -4.0305793349555967e-02 0.0000000000000000e+00  1.1213161070342290e+00 -3.3546532640322139e-02 0.0000000000000000e+00  1.1235697804232581e+00 -2.6461884081587443e-02 0.0000000000000000e+00  1.1246928675503647e+00 -1.9376676607972782e-02 0.0000000000000000e+00  1.1245990618592943e+00 -1.2185891476224512e-02 0.0000000000000000e+00  1.1233517456129993e+00 -5.6704905514102961e-03 0.0000000000000000e+00  1.1210073473962952e+00 6.4132558132714602e-04 0.0000000000000000e+00  1.1175774419163296e+00 6.1925530050983791e-03 0.0000000000000000e+00  1.1134919618900239e+00 1.0640419326702817e-02 0.0000000000000000e+00  1.1086816382782230e+00 1.3956934401900297e-02 0.0000000000000000e+00  1.1034835093240283e+00 1.6076964328841245e-02 0.0000000000000000e+00  1.0981323951433104e+00 1.7020177085886705e-02 0.0000000000000000e+00  1.0929506883540221e+00 1.6551528457930578e-02 0.0000000000000000e+00  1.0880638166889052e+00 1.4906886691118093e-02 0.0000000000000000e+00  1.0839089344470680e+00 1.2210503093623861e-02 0.0000000000000000e+00  1.0807241300812529e+00 8.4399461795171965e-03 0.0000000000000000e+00  1.0786162564395569e+00 4.003501