<?xml version="1.0"?>
<VTKFile type="UnstructuredGrid"  version="0.1"  >
<UnstructuredGrid>
<Piece  NumberOfPoints="10199" NumberOfCells="20110">
<Points>
<DataArray  type="Float64"  NumberOfComponents="3"  format="ascii">0 -5 0  8 -5 0  30 -5 0  40 -5 0  40 5 0  30 5 0  8 5 0  0 5 0  8 -2.5 0  15 -2.5 0  30 -2.5 0  30 2.5 0  15 2.5 0  8 2.5 0  10 0.5 0  10 -0.5 0  0 0 0  0.4210526315780956 -5 0  0.8421052631563433 -5 0  1.263157894734281 -5 0  1.684210526311999 -5 0  2.105263157889717 -5 0  2.526315789467435 -5 0  2.947368421045153 -5 0  3.368421052622872 -5 0  3.78947368420059 -5 0  4.210526315779479 -5 0  4.631578947359537 -5 0  5.052631578939595 -5 0  5.473684210519653 -5 0  5.89473684209971 -5 0  6.315789473679768 -5 0  6.736842105259826 -5 0  7.157894736839884 -5 0  7.578947368419942 -5 0  8.407407407405314 -5 0  8.814814814810628 -5 0  9.222222222215942 -5 0  9.629629629621256 -5 0  10.03703703702657 -5 0  10.44444444443188 -5 0  10.8518518518372 -5 0  11.25925925924251 -5 0  11.66666666664783 -5 0  12.07407407405314 -5 0  12.48148148145846 -5 0  12.88888888886377 -5 0  13.29629629626908 -5 0  13.7037037036744 -5 0  14.11111111107971 -5 0  14.51851851848502 -5 0  14.92592592589034 -5 0  15.33333333329565 -5 0  15.74074074070096 -5 0  16.14814814810754 -5 0  16.55555555551614 -5 0  16.96296296292474 -5 0  17.37037037033335 -5 0  17.77777777774195 -5 0  18.18518518515056 -5 0  18.59259259255916 -5 0  18.99999999996776 -5 0  19.40740740737636 -5 0  19.81481481478497 -5 0  20.22222222219357 -5 0  20.62962962960217 -5 0  21.03703703701077 -5 0  21.44444444441937 -5 0  21.85185185182797 -5 0  22.25925925923657 -5 0  22.66666666664518 -5 0  23.07407407405378 -5 0  23.48148148146238 -5 0  23.88888888887098 -5 0  24.29629629627958 -5 0  24.70370370368818 -5 0  25.11111111109678 -5 0  25.51851851850539 -5 0  25.92592592591399 -5 0  26.33333333332259 -5 0  26.74074074073119 -5 0  27.14814814813979 -5 0  27.55555555554839 -5 0  27.96296296295699 -5 0  28.3703703703656 -5 0  28.7777777777742 -5 0  29.1851851851828 -5 0  29.5925925925914 -5 0  30.41666666667852 -5 0  30.83333333335704 -5 0  31.25000000003556 -5 0  31.66666666671408 -5 0  32.08333333338936 -5 0  32.50000000005308 -5 0  32.9166666667168 -5 0  33.33333333338052 -5 0  33.75000000004424 -5 0  34.16666666670795 -5 0  34.58333333337167 -5 0  35.00000000003539 -5 0  35.41666666669911 -5 0  35.83333333336282 -5 0  36.25000000002654 -5 0  36.66666666669026 -5 0  37.08333333335398 -5 0  37.50000000001769 -5 0  37.91666666668141 -5 0  38.33333333334513 -5 0  38.75000000000885 -5 0  39.16666666667257 -5 0  39.58333333333628 -5 0  40 -4.583333333332821 0  40 -4.166666666665642 0  40 -3.74999999999855 0  40 -3.333333333333135 0  40 -2.916666666667806 0  40 -2.500000000002478 0  40 -2.083333333337148 0  40 -1.666666666671818 0  40 -1.250000000006488 0  40 -0.8333333333405228 0  40 -0.4166666666733416 0  40 -6.163070054299169e-12 0  40 0.4166666666610173 0  40 0.8333333333281976 0  40 1.249999999995378 0  40 1.666666666662558 0  40 2.083333333329739 0  40 2.499999999996919 0  40 2.916666666664099 0  40 3.33333333333128 0  40 3.74999999999846 0  40 4.166666666665641 0  40 4.583333333332821 0  39.58333333333628 5 0  39.16666666667256 5 0  38.75000000000885 5 0  38.33333333334513 5 0  37.91666666668141 5 0  37.50000000001769 5 0  37.08333333335398 5 0  36.66666666669025 5 0  36.25000000002654 5 0  35.83333333336282 5 0  35.41666666669911 5 0  35.00000000003539 5 0  34.58333333337167 5 0  34.16666666670795 5 0  33.75000000004424 5 0  33.33333333338052 5 0  32.9166666667168 5 0  32.50000000005308 5 0  32.08333333338936 5 0  31.66666666671408 5 0  31.25000000003556 5 0  30.83333333335704 5 0  30.41666666667852 5 0  29.59259259259259 5 0  29.18518518518519 5 0  28.77777777777778 5 0  28.37037037037037 5 0  27.96296296296296 5 0  27.55555555555556 5 0  27.14814814814815 5 0  26.74074074074074 5 0  26.33333333333333 5 0  25.92592592592593 5 0  25.51851851851852 5 0  25.11111111111111 5 0  24.7037037037037 5 0  24.2962962962963 5 0  23.88888888888889 5 0  23.48148148148148 5 0  23.07407407407408 5 0  22.66666666666667 5 0  22.25925925925926 5 0  21.85185185185185 5 0  21.44444444444445 5 0  21.03703703703704 5 0  20.62962962962963 5 0  20.22222222222222 5 0  19.81481481481482 5 0  19.40740740740741 5 0  19 5 0  18.5925925925926 5 0  18.18518518518519 5 0  17.77777777777778 5 0  17.37037037037037 5 0  16.96296296296296 5 0  16.55555555555556 5 0  16.14814814814815 5 0  15.74074074074074 5 0  15.33333333333333 5 0  14.92592592592593 5 0  14.51851851851852 5 0  14.11111111111111 5 0  13.70370370370371 5 0  13.2962962962963 5 0  12.88888888888889 5 0  12.48148148148148 5 0  12.07407407407408 5 0  11.66666666666667 5 0  11.25925925925926 5 0  10.85185185185185 5 0  10.44444444444445 5 0  10.03703703703704 5 0  9.629629629629633 5 0  9.222222222222221 5 0  8.814814814814817 5 0  8.407407407407408 5 0  7.5789473684193 5 0  7.157894736838599 5 0  6.73684210526082 5 0  6.315789473684795 5 0  5.894736842108769 5 0  5.473684210532742 5 0  5.052631578956715 5 0  4.631578947380689 5 0  4.210526315804662 5 0  3.789473684226299 5 0  3.368421052645599 5 0  2.947368421064898 5 0  2.526315789484198 5 0  2.105263157903499 5 0  1.6842105263228 5 0  1.2631578947421 5 0  0.8421052631613994 5 0  0.4210526315806993 5 0  0 4.545454545454545 0  0 4.09090909090909 0  0 3.636363636363634 0  0 3.18181818181818 0  0 2.727272727272726 0  0 2.272727272727271 0  0 1.818181818181817 0  0 1.363636363636363 0  0 0.9090909090909092 0  0 0.454545454545455 0  0 -0.4545454545450807 0  0 -0.9090909090895867 0  0 -1.363636363633713 0  0 -1.818181818177841 0  0 -2.272727272723127 0  0 -2.727272727269273 0  0 -3.181818181815419 0  0 -3.636363636361564 0  0 -4.090909090907709 0  0 -4.545454545453855 0  8 -4.499999999999999 0  8 -3.999999999999999 0  8 -3.499999999999999 0  8 -3 0  8.137254901963859 -2.5 0  8.274509803926303 -2.5 0  8.411764705886863 -2.5 0  8.549019607849138 -2.5 0  8.686274509809513 -2.5 0  8.82352941176989 -2.5 0  8.960784313730265 -2.5 0  9.098039215690642 -2.5 0  9.235294117651017 -2.5 0  9.372549019611395 -2.5 0  9.50980392157177 -2.5 0  9.647058823532147 -2.5 0  9.784313725492522 -2.5 0  9.921568627452897 -2.5 0  10.05882352941327 -2.5 0  10.19607843137365 -2.5 0  10.33333333333402 -2.5 0  10.4705882352944 -2.5 0  10.60784313725478 -2.5 0  10.74509803921515 -2.5 0  10.88235294117553 -2.5 0  11.0196078431359 -2.5 0  11.15686274509628 -2.5 0  11.29411764705665 -2.5 0  11.43137254901703 -2.5 0  11.56862745097915 -2.5 0  11.70588235294301 -2.5 0  11.84313725490686 -2.5 0  11.98039215687072 -2.5 0  12.11764705883209 -2.5 0  12.25490196079247 -2.5 0  12.39215686275285 -2.5 0  12.52941176471322 -2.5 0  12.6666666666736 -2.5 0  12.80392156863397 -2.5 0  12.94117647059435 -2.5 0  13.07843137255473 -2.5 0  13.2156862745151 -2.5 0  13.35294117647548 -2.5 0  13.49019607843586 -2.5 0  13.62745098039623 -2.5 0  13.76470588235661 -2.5 0  13.90196078431699 -2.5 0  14.03921568627736 -2.5 0  14.17647058823774 -2.5 0  14.31372549019812 -2.5 0  14.45098039215849 -2.5 0  14.58823529411887 -2.5 0  14.72549019607925 -2.5 0  14.86274509803962 -2.5 0  15.20270270270254 -2.5 0  15.40540540540509 -2.5 0  15.60810810810763 -2.5 0  15.81081081081017 -2.5 0  16.01351351351227 -2.5 0  16.21621621621265 -2.5 0  16.41891891891279 -2.5 0  16.62162162161294 -2.5 0  16.82432432431308 -2.5 0  17.02702702701322 -2.5 0  17.22972972971337 -2.5 0  17.43243243241351 -2.5 0  17.63513513511365 -2.5 0  17.83783783781379 -2.5 0  18.04054054051394 -2.5 0  18.24324324321408 -2.5 0  18.44594594591422 -2.5 0  18.64864864861436 -2.5 0  18.85135135131451 -2.5 0  19.05405405401465 -2.5 0  19.25675675671479 -2.5 0  19.45945945941494 -2.5 0  19.66216216211508 -2.5 0  19.86486486481522 -2.5 0  20.06756756751536 -2.5 0  20.27027027021551 -2.5 0  20.47297297291565 -2.5 0  20.6756756756158 -2.5 0  20.87837837831594 -2.5 0  21.08108108101608 -2.5 0  21.28378378371622 -2.5 0  21.48648648641637 -2.5 0  21.68918918911651 -2.5 0  21.89189189181666 -2.5 0  22.0945945945168 -2.5 0  22.29729729721694 -2.5 0  22.49999999991778 -2.5 0  22.70270270262203 -2.5 0  22.90540540532697 -2.5 0  23.10810810803191 -2.5 0  23.31081081073686 -2.5 0  23.5135135134418 -2.5 0  23.71621621614674 -2.5 0  23.91891891885169 -2.5 0  24.12162162155663 -2.5 0  24.32432432426158 -2.5 0  24.52702702696652 -2.5 0  24.72972972967146 -2.5 0  24.93243243237641 -2.5 0  25.13513513508135 -2.5 0  25.3378378377863 -2.5 0  25.54054054049124 -2.5 0  25.74324324319618 -2.5 0  25.94594594590112 -2.5 0  26.14864864860607 -2.5 0  26.35135135131101 -2.5 0  26.55405405401596 -2.5 0  26.7567567567209 -2.5 0  26.95945945942584 -2.5 0  27.16216216213079 -2.5 0  27.36486486483573 -2.5 0  27.56756756754068 -2.5 0  27.77027027024562 -2.5 0  27.97297297295056 -2.5 0  28.1756756756555 -2.5 0  28.37837837836045 -2.5 0  28.5810810810654 -2.5 0  28.78378378377034 -2.5 0  28.98648648647528 -2.5 0  29.18918918918023 -2.5 0  29.39189189188517 -2.5 0  29.59459459459011 -2.5 0  29.79729729729506 -2.5 0  30 -3.000000000000001 0  30 -3.500000000000001 0  30 -4.000000000000001 0  30 -4.5 0  8 4.499999999999999 0  8 3.999999999999999 0  8 3.499999999999999 0  8 3 0  8.137254901963859 2.5 0  8.274509803926303 2.5 0  8.411764705886863 2.5 0  8.549019607849138 2.5 0  8.686274509809513 2.5 0  8.82352941176989 2.5 0  8.960784313730265 2.5 0  9.098039215690642 2.5 0  9.235294117651017 2.5 0  9.372549019611395 2.5 0  9.50980392157177 2.5 0  9.647058823532147 2.5 0  9.784313725492522 2.5 0  9.921568627452897 2.5 0  10.05882352941327 2.5 0  10.19607843137365 2.5 0  10.33333333333402 2.5 0  10.4705882352944 2.5 0  10.60784313725478 2.5 0  10.74509803921515 2.5 0  10.88235294117553 2.5 0  11.0196078431359 2.5 0  11.15686274509628 2.5 0  11.29411764705665 2.5 0  11.43137254901703 2.5 0  11.56862745097915 2.5 0  11.70588235294301 2.5 0  11.84313725490686 2.5 0  11.98039215687072 2.5 0  12.11764705883209 2.5 0  12.25490196079247 2.5 0  1
[...]
<PointData  Vectors="f_17"> 
<DataArray  type="Float64"  Name="f_17"  NumberOfComponents="3" format="ascii">1.0000001296330434e+00 0.0000000000000000e+00 0.0000000000000000e+00  1.0399251741922146e+00 0.0000000000000000e+00 0.0000000000000000e+00  1.0513452052877805e+00 0.0000000000000000e+00 0.0000000000000000e+00  1.0750871611762383e+00 0.0000000000000000e+00 0.0000000000000000e+00  1.0925470298667437e+00 0.0000000000000000e+00 0.0000000000000000e+00  1.0630345641348082e+00 0.0000000000000000e+00 0.0000000000000000e+00  1.0410037484986383e+00 0.0000000000000000e+00 0.0000000000000000e+00  1.0000001296330434e+00 0.0000000000000000e+00 0.0000000000000000e+00  1.0179982207667320e+00 -5.0919589727693004e-02 0.0000000000000000e+00  9.8985266022877916e-01 -8.2273130236039400e-03 0.0000000000000000e+00  9.9615883584877007e-01 4.1165790806491104e-02 0.0000000000000000e+00  1.1506530282641050e+00 4.6571972730697728e-02 0.0000000000000000e+00  1.1199917428043595e+00 -6.4212031301933342e-02 0.0000000000000000e+00  1.0248061705894638e+00 5.0761512968262396e-02 0.0000000000000000e+00  0.0000000000000000e+00 0.0000000000000000e+00 0.0000000000000000e+00  0.0000000000000000e+00 0.0000000000000000e+00 0.0000000000000000e+00  1.0000001296330434e+00 0.0000000000000000e+00 0.0000000000000000e+00  9.9927897590194892e-01 0.0000000000000000e+00 0.0000000000000000e+00  9.9865458322925338e-01 0.0000000000000000e+00 0.0000000000000000e+00  1.0006313250052872e+00 0.0000000000000000e+00 0.0000000000000000e+00  1.0003151946377991e+00 0.0000000000000000e+00 0.0000000000000000e+00  1.0011348122156007e+00 0.0000000000000000e+00 0.0000000000000000e+00  1.0012838066512852e+00 0.0000000000000000e+00 0.0000000000000000e+00  1.0014297577846092e+00 0.0000000000000000e+00 0.0000000000000000e+00  1.0021324477475855e+00 0.0000000000000000e+00 0.0000000000000000e+00  1.0032321276036034e+00 0.0000000000000000e+00 0.0000000000000000e+00  1.0042873002184420e+00 0.0000000000000000e+00 0.0000000000000000e+00  1.0056610163777868e+00 0.0000000000000000e+00 0.0000000000000000e+00  1.0078408333326150e+00 0.0000000000000000e+00 0.0000000000000000e+00  1.0100934135586794e+00 0.0000000000000000e+00 0.0000000000000000e+00  1.0138935758990153e+00 0.0000000000000000e+00 0.0000000000000000e+00  1.0154924777724432e+00 0.0000000000000000e+00 0.0000000000000000e+00  1.0198967769039955e+00 0.0000000000000000e+00 0.0000000000000000e+00  1.0265251215567477e+00 0.0000000000000000e+00 0.0000000000000000e+00  1.0318976339523294e+00 0.0000000000000000e+00 0.0000000000000000e+00  1.0481483407097265e+00 0.0000000000000000e+00 0.0000000000000000e+00  1.0569742611340860e+00 0.0000000000000000e+00 0.0000000000000000e+00  1.0654142345317774e+00 0.0000000000000000e+00 0.0000000000000000e+00  1.0744593454504876e+00 0.0000000000000000e+00 0.0000000000000000e+00  1.0819645107964060e+00 0.0000000000000000e+00 0.0000000000000000e+00  1.0885732737446494e+00 0.0000000000000000e+00 0.0000000000000000e+00  1.0942667213474471e+00 0.0000000000000000e+00 0.0000000000000000e+00  1.0966245907080261e+00 0.0000000000000000e+00 0.0000000000000000e+00  1.0972288822804552e+00 0.0000000000000000e+00 0.0000000000000000e+00  1.0951794604967606e+00 0.0000000000000000e+00 0.0000000000000000e+00  1.0913513971193980e+00 0.0000000000000000e+00 0.0000000000000000e+00  1.0848507406246950e+00 0.0000000000000000e+00 0.0000000000000000e+00  1.0785595951756444e+00 0.0000000000000000e+00 0.0000000000000000e+00  1.0720185483968294e+00 0.0000000000000000e+00 0.0000000000000000e+00  1.0662648491583535e+00 0.0000000000000000e+00 0.0000000000000000e+00  1.0624735631478368e+00 0.0000000000000000e+00 0.0000000000000000e+00  1.0605431078013958e+00 0.0000000000000000e+00 0.0000000000000000e+00  1.0606853741338176e+00 0.0000000000000000e+00 0.0000000000000000e+00  1.0619963992304409e+00 0.0000000000000000e+00 0.0000000000000000e+00  1.0636153719284929e+00 0.0000000000000000e+00 0.0000000000000000e+00  1.0660074449595784e+00 0.0000000000000000e+00 0.0000000000000000e+00  1.0673498489773567e+00 0.0000000000000000e+00 0.0000000000000000e+00  1.0655329205183837e+00 0.0000000000000000e+00 0.0000000000000000e+00  1.0624226420511691e+00 0.0000000000000000e+00 0.0000000000000000e+00  1.0574530312280785e+00 0.0000000000000000e+00 0.0000000000000000e+00  1.0515452578272684e+00 0.0000000000000000e+00 0.0000000000000000e+00  1.0462146119057854e+00 0.0000000000000000e+00 0.0000000000000000e+00  1.0416386250399410e+00 0.0000000000000000e+00 0.0000000000000000e+00  1.0391286474770238e+00 0.0000000000000000e+00 0.0000000000000000e+00  1.0394162538153413e+00 0.0000000000000000e+00 0.0000000000000000e+00  1.0413889440542623e+00 0.0000000000000000e+00 0.0000000000000000e+00  1.0451321235165252e+00 0.0000000000000000e+00 0.0000000000000000e+00  1.0515284881351139e+00 0.0000000000000000e+00 0.0000000000000000e+00  1.0567315660255141e+00 0.0000000000000000e+00 0.0000000000000000e+00  1.0605077841538044e+00 0.0000000000000000e+00 0.0000000000000000e+00  1.0631572328282055e+00 0.0000000000000000e+00 0.0000000000000000e+00  1.0625400889856280e+00 0.0000000000000000e+00 0.0000000000000000e+00  1.0595426655995241e+00 0.0000000000000000e+00 0.0000000000000000e+00  1.0565170174891343e+00 0.0000000000000000e+00 0.0000000000000000e+00  1.0521714387735854e+00 0.0000000000000000e+00 0.0000000000000000e+00  1.0483459702026656e+00 0.0000000000000000e+00 0.0000000000000000e+00  1.0467922202659128e+00 0.0000000000000000e+00 0.0000000000000000e+00  1.0464964297565815e+00 0.0000000000000000e+00 0.0000000000000000e+00  1.0482159082830944e+00 0.0000000000000000e+00 0.0000000000000000e+00  1.0522684213266762e+00 0.0000000000000000e+00 0.0000000000000000e+00  1.0562715418971840e+00 0.0000000000000000e+00 0.0000000000000000e+00  1.0598072886635375e+00 0.0000000000000000e+00 0.0000000000000000e+00  1.0648319126345054e+00 0.0000000000000000e+00 0.0000000000000000e+00  1.0659900282980683e+00 0.0000000000000000e+00 0.0000000000000000e+00  1.0634515945951248e+00 0.0000000000000000e+00 0.0000000000000000e+00  1.0601718542185203e+00 0.0000000000000000e+00 0.0000000000000000e+00  1.0575021043077300e+00 0.0000000000000000e+00 0.0000000000000000e+00  1.0536782481064548e+00 0.0000000000000000e+00 0.0000000000000000e+00  1.0501572471360030e+00 0.0000000000000000e+00 0.0000000000000000e+00  1.0501947599828365e+00 0.0000000000000000e+00 0.0000000000000000e+00  1.0521083452499786e+00 0.0000000000000000e+00 0.0000000000000000e+00  1.0560410282220298e+00 0.0000000000000000e+00 0.0000000000000000e+00  1.0605322249166169e+00 0.0000000000000000e+00 0.0000000000000000e+00  1.0638898274303854e+00 0.0000000000000000e+00 0.0000000000000000e+00  1.0659556981263150e+00 0.0000000000000000e+00 0.0000000000000000e+00  1.0664025589465285e+00 0.0000000000000000e+00 0.0000000000000000e+00  1.0651086055797354e+00 0.0000000000000000e+00 0.0000000000000000e+00  1.0620019869539550e+00 0.0000000000000000e+00 0.0000000000000000e+00  1.0588765414861259e+00 0.0000000000000000e+00 0.0000000000000000e+00  1.0561394575898795e+00 0.0000000000000000e+00 0.0000000000000000e+00  1.0544976340935857e+00 0.0000000000000000e+00 0.0000000000000000e+00  1.0553282248617597e+00 0.0000000000000000e+00 0.0000000000000000e+00  1.0580946045408466e+00 0.0000000000000000e+00 0.0000000000000000e+00  1.0629975180423212e+00 0.0000000000000000e+00 0.0000000000000000e+00  1.0677558385456543e+00 0.0000000000000000e+00 0.0000000000000000e+00  1.0728232992313855e+00 0.0000000000000000e+00 0.0000000000000000e+00  1.0763738599420534e+00 0.0000000000000000e+00 0.0000000000000000e+00  1.0789334350382391e+00 0.0000000000000000e+00 0.0000000000000000e+00  1.0790087876082799e+00 0.0000000000000000e+00 0.0000000000000000e+00  1.0783254550525037e+00 0.0000000000000000e+00 0.0000000000000000e+00  1.0761395329086128e+00 0.0000000000000000e+00 0.0000000000000000e+00  1.0751984463929216e+00 1.2045716874523615e-03 0.0000000000000000e+00  1.0745729714555889e+00 3.1200531538855361e-03 0.0000000000000000e+00  1.0725557740926168e+00 6.8146311519493262e-03 0.0000000000000000e+00  1.0661277141562200e+00 1.3829801715134290e-02 0.0000000000000000e+00  1.0554848944961470e+00 2.5711044656741466e-02 0.0000000000000000e+00  1.0354471957536571e+00 4.5271734024575828e-02 0.0000000000000000e+00  1.0018044610254939e+00 7.1470033589288773e-02 0.0000000000000000e+00  9.5075361688612559e-01 1.0376168884012918e-01 0.0000000000000000e+00  8.8290095776018840e-01 1.3628995907724534e-01 0.0000000000000000e+00  8.1010251310492565e-01 1.5864604129445919e-01 0.0000000000000000e+00  7.5010064351371442e-01 1.7513467025010623e-01 0.0000000000000000e+00  7.2105729485673620e-01 1.9132663571200309e-01 0.0000000000000000e+00  7.4670714271553351e-01 2.1577770543911282e-01 0.0000000000000000e+00  8.3390083012845606e-01 2.3964317897756598e-01 0.0000000000000000e+00  9.5605964586294789e-01 2.5408591763493421e-01 0.0000000000000000e+00  1.0694347385167675e+00 2.3282584617808422e-01 0.0000000000000000e+00  1.1342546134288920e+00 1.8496072071423533e-01 0.0000000000000000e+00  1.1459820013801203e+00 1.3088796916314394e-01 0.0000000000000000e+00  1.1299794543930821e+00 8.4798320187284185e-02 0.0000000000000000e+00  1.1132838156584506e+00 5.1631808996616964e-02 0.0000000000000000e+00  1.1029717595028796e+00 3.1249080162214761e-02 0.0000000000000000e+00  1.0977398705245476e+00 1.7995342363528250e-02 0.0000000000000000e+00  1.0941683533468480e+00 8.0694670053497973e-03 0.0000000000000000e+00  1.0840876196518738e+00 0.0000000000000000e+00 0.0000000000000000e+00  1.0757873401960925e+00 0.0000000000000000e+00 0.0000000000000000e+00  1.0686549131097756e+00 0.0000000000000000e+00 0.0000000000000000e+00  1.0642343497914484e+00 0.0000000000000000e+00 0.0000000000000000e+00  1.0617167848691507e+00 0.0000000000000000e+00 0.0000000000000000e+00  1.0619615066295960e+00 0.0000000000000000e+00 0.0000000000000000e+00  1.0638820942112805e+00 0.0000000000000000e+00 0.0000000000000000e+00  1.0667237876180076e+00 0.0000000000000000e+00 0.0000000000000000e+00  1.0683937767018818e+00 0.0000000000000000e+00 0.0000000000000000e+00  1.0692582781176418e+00 0.0000000000000000e+00 0.0000000000000000e+00  1.0681822846463200e+00 0.0000000000000000e+00 0.0000000000000000e+00  1.0653335122190541e+00 0.0000000000000000e+00 0.0000000000000000e+00  1.0611841781969376e+00 0.0000000000000000e+00 0.0000000000000000e+00  1.0573870344853400e+00 0.0000000000000000e+00 0.0000000000000000e+00  1.0532358612067101e+00 0.0000000000000000e+00 0.0000000000000000e+00  1.0515756201264317e+00 0.0000000000000000e+00 0.0000000000000000e+00  1.0504968671398902e+00 0.0000000000000000e+00 0.0000000000000000e+00  1.0519932663135012e+00 0.0000000000000000e+00 0.0000000000000000e+00  1.0547952580996056e+00 0.0000000000000000e+00 0.0000000000000000e+00  1.0589580735660811e+00 0.0000000000000000e+00 0.0000000000000000e+00  1.0624087757268470e+00 0.0000000000000000e+00 0.0000000000000000e+00  1.0643092883146841e+00 0.0000000000000000e+00 0.0000000000000000e+00  1.0647891513042591e+00 0.0000000000000000e+00 0.0000000000000000e+00  1.0591893686711955e+00 0.0000000000000000e+00 0.0000000000000000e+00  1.0551469522042969e+00 0.0000000000000000e+00 0.0000000000000000e+00  1.0503731308611328e+00 0.0000000000000000e+00 0.0000000000000000e+00  1.0481275833857024e+00 0.0000000000000000e+00 0.0000000000000000e+00  1.0484376000069702e+00 0.0000000000000000e+00 0.0000000000000000e+00  1.0495389696793243e+00 0.0000000000000000e+00 0.0000000000000000e+00  1.0505433015492047e+00 0.0000000000000000e+00 0.0000000000000000e+00  1.0548931482546966e+00 0.0000000000000000e+00 0.0000000000000000e+00  1.0593624795450665e+00 0.0000000000000000e+00 0.0000000000000000e+00  1.0622117127087667e+00 0.0000000000000000e+00 0.0000000000000000e+00  1.0639130406628561e+00 0.0000000000000000e+00 0.0000000000000000e+00  1.0633528707897866e+00 0.0000000000000000e+00 0.0000000000000000e+00  1.0599067934419166e+00 0.0000000000000000e+00 0.0000000000000000e+00  1.0556611394313622e+00 0.0000000000000000e+00 0.0000000000000000e+00  1.0506175018653057e+00 0.0000000000000000e+00 0.0000000000000000e+00  1.0451560165214262e+00 0.0000000000000000e+00 0.0000000000000000e+00  1.0424526217345986e+00 0.0000000000000000e+00 0.0000000000000000e+00  1.0417568773186037e+00 0.0000000000000000e+00 0.0000000000000000e+00  1.0424165810772303e+00 0.0000000000000000e+00 0.0000000000000000e+00  1.0460370287088605e+00 0.0000000000000000e+00 0.0000000000000000e+00  1.0507721298848542e+00 0.0000000000000000e+00 0.0000000000000000e+00  1.0547782047440624e+00 0.0000000000000000e+00 0.0000000000000000e+00  1.0593051677034055e+00 0.0000000000000000e+00 0.0000000000000000e+00  1.0620177694523747e+00 0.0000000000000000e+00 0.0000000000000000e+00  1.0615080546784468e+00 0.0000000000000000e+00 0.0000000000000000e+00  1.0590541096165174e+00 0.0000000000000000e+00 0.0000000000000000e+00  1.0548322287030740e+00 0.0000000000000000e+00 0.0000000000000000e+00  1.0494347258109427e+00 0.0000000000000000e+00 0.0000000000000000e+00  1.0448439545112889e+00 0.0000000000000000e+00 0.0000000000000000e+00  1.0417350726338706e+00 0.0000000000000000e+00 0.0000000000000000e+00  1.0405692244217559e+00 0.0000000000000000e+00 0.0000000000000000e+00  1.0426804843971644e+00 0.0000000000000000e+00 0.0000000000000000e+00  1.0459571507408068e+00 0.0000000000000000e+00 0.0000000000000000e+00  1.0514934140428258e+00 0.0000000000000000e+00 0.0000000000000000e+00  1.0587856801696882e+00 0.0000000000000000e+00 0.0000000000000000e+00  1.0661599279814873e+00 0.0000000000000000e+00 0.0000000000000000e+00  1.0724099831498910e+00 0.0000000000000000e+00 0.0000000000000000e+00  1.0770868331043253e+00 0.0000000000000000e+00 0.0000000000000000e+00  1.0807989854667059e+00 0.0000000000000000e+00 0.0000000000000000e+00  1.0839883629508766e+00 0.0000000000000000e+00 0.0000000000000000e+00  1.0853920872369285e+00 0.0000000000000000e+00 0.0000000000000000e+00  1.0860060219831387e+00 0.0000000000000000e+00 0.0000000000000000e+00  1.0876413557695239e+00 0.0000000000000000e+00 0.0000000000000000e+00  1.0873419587344921e+00 0.0000000000000000e+00 0.0000000000000000e+00  1.0874857547458132e+00 0.0000000000000000e+00 0.0000000000000000e+00  1.0865805757974942e+00 0.0000000000000000e+00 0.0000000000000000e+00  1.0839969068180406e+00 0.0000000000000000e+00 0.0000000000000000e+00  1.0803749970326433e+00 0.0000000000000000e+00 0.0000000000000000e+00  1.0758342832484240e+00 0.0000000000000000e+00 0.0000000000000000e+00  1.0701544850027398e+00 0.0000000000000000e+00 0.0000000000000000e+00  1.0629212765183127e+00 0.0000000000000000e+00 0.0000000000000000e+00  1.0561255661648945e+00 0.0000000000000000e+00 0.0000000000000000e+00  1.0484797719558603e+00 0.0000000000000000e+00 0.0000000000000000e+00  1.0336435853269155e+00 0.0000000000000000e+00 0.0000000000000000e+00  1.0271391914482235e+00 0.0000000000000000e+00 0.0000000000000000e+00  1.0219479209682736e+00 0.0000000000000000e+00 0.0000000000000000e+00  1.0172502113698889e+00 0.0000000000000000e+00 0.0000000000000000e+00  1.0134206849118772e+00 0.0000000000000000e+00 0.0000000000000000e+00  1.0103955476299116e+00 0.0000000000000000e+00 0.0000000000000000e+00  1.0081008237825284e+00 0.0000000000000000e+00 0.0000000000000000e+00  1.0058968135640367e+00 0.0000000000000000e+00 0.0000000000000000e+00  1.0043578403094588e+00 0.0000000000000000e+00 0.0000000000000000e+00  1.0032991567580773e+00 0.0000000000000000e+00 0.0000000000000000e+00  1.0020538314887357e+00 0.0000000000000000e+00 0.0000000000000000e+00  1.0018212814391392e+00 0.0000000000000000e+00 0.0000000000000000e+00  1.0006689825453676e+00 0.0000000000000000e+00 0.0000000000000000e+00  1.0005523085355781e+00 0.0000000000000000e+00 0.0000000000000000e+00  1.0000368125452528e+00 0.0000000000000000e+00 0.0000000000000000e+00  1.0006248129734707e+00 0.0000000000000000e+00 0.0000000000000000e+00  1.0003054315636066e+00 0.0000000000000000e+00 0.0000000000000000e+00  9.9980589413322885e-01 0.0000000000000000e+00 0.0000000000000000e+00  1.0000001296330434e+00 0.0000000000000000e+00 0.0000000000000000e+00  1.0000001296330434e+00 0.0000000000000000e+00 0.0000000000000000e+00  1.0000001296330434e+00 0.0000000000000000e+00 0.0000000000000000e+00  1.0000001296330434e+00 0.0000000000000000e+00 0.0000000000000000e+00  1.0000001296330434e+00 0.0000000000000000e+00 0.0000000000000000e+00  1.0000001296330434e+00 0.0000000000000000e+00 0.0000000000000000e+00  1.0000001296330434e+00 0.0000000000000000e+00 0.0000000000000000e+00  1.0000001296330434e+00 0.0000000000000000e+00 0.0000000000000000e+00  1.0000001296330434e+00 0.0000000000000000e+00 0.0000000000000000e+00  1.0000001296330434e+00 0.0000000000000000e+00 0.0000000000000000e+00  1.0000001296330434e+00 0.0000000000000000e+00 0.0000000000000000e+00  1.0000001296330434e+00 0.0000000000000000e+00 0.0000000000000000e+00  1.0000001296330434e+00 0.0000000000000000e+00 0.0000000000000000e+00  1.0000001296330434e+00 0.0000000000000000e+00 0.0000000000000000e+00  1.0000001296330434e+00 0.0000000000000000e+00 0.0000000000000000e+00  1.0000001296330434e+00 0.0000000000000000e+00 0.0000000000000000e+00  1.0000001296330434e+00 0.0000000000000000e+00 0.0000000000000000e+00  1.0000001296330434e+00 0.0000000000000000e+00 0.0000000000000000e+00  1.0000001296330434e+00 0.0000000000000000e+00 0.0000000000000000e+00  1.0000001296330434e+00 0.0000000000000000e+00 0.0000000000000000e+00  1.0392534780087839e+00 -9.5500599920477838e-03 0.0000000000000000e+00  1.0360284773762285e+00 -1.9245230352541259e-02 0.0000000000000000e+00  1.0334241780742837e+00 -2.9532151833026581e-02 0.0000000000000000e+00  1.0271582062428406e+00 -4.0232923808659553e-02 0.0000000000000000e+00  1.0205337951245796e+00 -5.4837249130206038e-02 0.0000000000000000e+00  1.0247641738180298e+00 -5.8449752228675003e-02 0.0000000000000000e+00  1.0286531883720529e+00 -6.2158529447817100e-02 0.0000000000000000e+00  1.0335349149420272e+00 -6.5614360320484968e-02 0.0000000000000000e+00  1.0387060281650140e+00 -6.8951239920087240e-02 0.0000000000000000e+00  1.0445036644996404e+00 -7.1921267064217351e-02 0.0000000000000000e+00  1.0508897668965760e+00 -7.4567346373068610e-02 0.0000000000000000e+00  1.0577390401273823e+00 -7.6601810863306322e-02 0.0000000000000000e+00  1.0651075312731944e+00 -7.8130488057387926e-02 0.0000000000000000e+00  1.0726380658485608e+00 -7.8827132022067939e-02 0.0000000000000000e+00  1.0805132874912311e+00 -7.8911939766863642e-02 0.0000000000000000e+00  1.0884678860395571e+00 -7.8263928045070805e-02 0.0000000000000000e+00  1.0965400504516329e+00 -7.6603939166016835e-02 0.0000000000000000e+00  1.1043116844346146e+00 -7.4064798669571247e-02 0.0000000000000000e+00  1.1118624221603999e+00 -7.0853885949720474e-02 0.0000000000000000e+00  1.1190577699095137e+00 -6.6869762151527248e-02 0.0000000000000000e+00  1.1257213611934296e+00 -6.2173141939617781e-02 0.0000000000000000e+00  1.1318623309439380e+00 -5.6869045459702318e-02 0.0000000000000000e+00  1.1374334577342808e+00 -5.1082224287273631e-02 0.0000000000000000e+00  1.1424195782118378e+00 -4.4691681292876442e-02 0.0000000000000000e+00  1.1468023537544372e+00 -3.8061813612546118e-02 0.0000000000000000e+00  1.1505727387296194e+00 -3.0887304682221978e-02 0.0000000000000000e+00  1.1536179117506542e+00 -2.3334335771477539e-02 0.0000000000000000e+00  1.1561013901546853e+00 -1.5500869354907808e-02 0.0000000000000000e+00  1.1577652464802741e+00 -7.3679355982905637e-03 0.0000000000000000e+00  1.1586561979153711e+00 1.0898905982409085e-03 0.0000000000000000e+00  1.1586482547689481e+00 9.8090756585960011e-03 0.0000000000000000e+00  1.1576489674657262e+00 1.8642449118134390e-02 0.0000000000000000e+00  1.1556314665335476e+00 2.7641818839181730e-02 0.0000000000000000e+00  1.1524552475657091e+00 3.6640367294676242e-02 0.0000000000000000e+00  1.1481114543953059e+00 4.5397634217500302e-02 0.0000000000000000e+00  1.1425774061455338e+00 5.3775909090950459e-02 0.00