<?xml version="1.0"?>
<VTKFile type="UnstructuredGrid"  version="0.1"  >
<UnstructuredGrid>
<Piece  NumberOfPoints="10199" NumberOfCells="20110">
<Points>
<DataArray  type="Float64"  NumberOfComponents="3"  format="ascii">0 -5 0  8 -5 0  30 -5 0  40 -5 0  40 5 0  30 5 0  8 5 0  0 5 0  8 -2.5 0  15 -2.5 0  30 -2.5 0  30 2.5 0  15 2.5 0  8 2.5 0  10 0.5 0  10 -0.5 0  0 0 0  0.4210526315780956 -5 0  0.8421052631563433 -5 0  1.263157894734281 -5 0  1.684210526311999 -5 0  2.105263157889717 -5 0  2.526315789467435 -5 0  2.947368421045153 -5 0  3.368421052622872 -5 0  3.78947368420059 -5 0  4.210526315779479 -5 0  4.631578947359537 -5 0  5.052631578939595 -5 0  5.473684210519653 -5 0  5.89473684209971 -5 0  6.315789473679768 -5 0  6.736842105259826 -5 0  7.157894736839884 -5 0  7.578947368419942 -5 0  8.407407407405314 -5 0  8.814814814810628 -5 0  9.222222222215942 -5 0  9.629629629621256 -5 0  10.03703703702657 -5 0  10.44444444443188 -5 0  10.8518518518372 -5 0  11.25925925924251 -5 0  11.66666666664783 -5 0  12.07407407405314 -5 0  12.48148148145846 -5 0  12.88888888886377 -5 0  13.29629629626908 -5 0  13.7037037036744 -5 0  14.11111111107971 -5 0  14.51851851848502 -5 0  14.92592592589034 -5 0  15.33333333329565 -5 0  15.74074074070096 -5 0  16.14814814810754 -5 0  16.55555555551614 -5 0  16.96296296292474 -5 0  17.37037037033335 -5 0  17.77777777774195 -5 0  18.18518518515056 -5 0  18.59259259255916 -5 0  18.99999999996776 -5 0  19.40740740737636 -5 0  19.81481481478497 -5 0  20.22222222219357 -5 0  20.62962962960217 -5 0  21.03703703701077 -5 0  21.44444444441937 -5 0  21.85185185182797 -5 0  22.25925925923657 -5 0  22.66666666664518 -5 0  23.07407407405378 -5 0  23.48148148146238 -5 0  23.88888888887098 -5 0  24.29629629627958 -5 0  24.70370370368818 -5 0  25.11111111109678 -5 0  25.51851851850539 -5 0  25.92592592591399 -5 0  26.33333333332259 -5 0  26.74074074073119 -5 0  27.14814814813979 -5 0  27.55555555554839 -5 0  27.96296296295699 -5 0  28.3703703703656 -5 0  28.7777777777742 -5 0  29.1851851851828 -5 0  29.5925925925914 -5 0  30.41666666667852 -5 0  30.83333333335704 -5 0  31.25000000003556 -5 0  31.66666666671408 -5 0  32.08333333338936 -5 0  32.50000000005308 -5 0  32.9166666667168 -5 0  33.33333333338052 -5 0  33.75000000004424 -5 0  34.16666666670795 -5 0  34.58333333337167 -5 0  35.00000000003539 -5 0  35.41666666669911 -5 0  35.83333333336282 -5 0  36.25000000002654 -5 0  36.66666666669026 -5 0  37.08333333335398 -5 0  37.50000000001769 -5 0  37.91666666668141 -5 0  38.33333333334513 -5 0  38.75000000000885 -5 0  39.16666666667257 -5 0  39.58333333333628 -5 0  40 -4.583333333332821 0  40 -4.166666666665642 0  40 -3.74999999999855 0  40 -3.333333333333135 0  40 -2.916666666667806 0  40 -2.500000000002478 0  40 -2.083333333337148 0  40 -1.666666666671818 0  40 -1.250000000006488 0  40 -0.8333333333405228 0  40 -0.4166666666733416 0  40 -6.163070054299169e-12 0  40 0.4166666666610173 0  40 0.8333333333281976 0  40 1.249999999995378 0  40 1.666666666662558 0  40 2.083333333329739 0  40 2.499999999996919 0  40 2.916666666664099 0  40 3.33333333333128 0  40 3.74999999999846 0  40 4.166666666665641 0  40 4.583333333332821 0  39.58333333333628 5 0  39.16666666667256 5 0  38.75000000000885 5 0  38.33333333334513 5 0  37.91666666668141 5 0  37.50000000001769 5 0  37.08333333335398 5 0  36.66666666669025 5 0  36.25000000002654 5 0  35.83333333336282 5 0  35.41666666669911 5 0  35.00000000003539 5 0  34.58333333337167 5 0  34.16666666670795 5 0  33.75000000004424 5 0  33.33333333338052 5 0  32.9166666667168 5 0  32.50000000005308 5 0  32.08333333338936 5 0  31.66666666671408 5 0  31.25000000003556 5 0  30.83333333335704 5 0  30.41666666667852 5 0  29.59259259259259 5 0  29.18518518518519 5 0  28.77777777777778 5 0  28.37037037037037 5 0  27.96296296296296 5 0  27.55555555555556 5 0  27.14814814814815 5 0  26.74074074074074 5 0  26.33333333333333 5 0  25.92592592592593 5 0  25.51851851851852 5 0  25.11111111111111 5 0  24.7037037037037 5 0  24.2962962962963 5 0  23.88888888888889 5 0  23.48148148148148 5 0  23.07407407407408 5 0  22.66666666666667 5 0  22.25925925925926 5 0  21.85185185185185 5 0  21.44444444444445 5 0  21.03703703703704 5 0  20.62962962962963 5 0  20.22222222222222 5 0  19.81481481481482 5 0  19.40740740740741 5 0  19 5 0  18.5925925925926 5 0  18.18518518518519 5 0  17.77777777777778 5 0  17.37037037037037 5 0  16.96296296296296 5 0  16.55555555555556 5 0  16.14814814814815 5 0  15.74074074074074 5 0  15.33333333333333 5 0  14.92592592592593 5 0  14.51851851851852 5 0  14.11111111111111 5 0  13.70370370370371 5 0  13.2962962962963 5 0  12.88888888888889 5 0  12.48148148148148 5 0  12.07407407407408 5 0  11.66666666666667 5 0  11.25925925925926 5 0  10.85185185185185 5 0  10.44444444444445 5 0  10.03703703703704 5 0  9.629629629629633 5 0  9.222222222222221 5 0  8.814814814814817 5 0  8.407407407407408 5 0  7.5789473684193 5 0  7.157894736838599 5 0  6.73684210526082 5 0  6.315789473684795 5 0  5.894736842108769 5 0  5.473684210532742 5 0  5.052631578956715 5 0  4.631578947380689 5 0  4.210526315804662 5 0  3.789473684226299 5 0  3.368421052645599 5 0  2.947368421064898 5 0  2.526315789484198 5 0  2.105263157903499 5 0  1.6842105263228 5 0  1.2631578947421 5 0  0.8421052631613994 5 0  0.4210526315806993 5 0  0 4.545454545454545 0  0 4.09090909090909 0  0 3.636363636363634 0  0 3.18181818181818 0  0 2.727272727272726 0  0 2.272727272727271 0  0 1.818181818181817 0  0 1.363636363636363 0  0 0.9090909090909092 0  0 0.454545454545455 0  0 -0.4545454545450807 0  0 -0.9090909090895867 0  0 -1.363636363633713 0  0 -1.818181818177841 0  0 -2.272727272723127 0  0 -2.727272727269273 0  0 -3.181818181815419 0  0 -3.636363636361564 0  0 -4.090909090907709 0  0 -4.545454545453855 0  8 -4.499999999999999 0  8 -3.999999999999999 0  8 -3.499999999999999 0  8 -3 0  8.137254901963859 -2.5 0  8.274509803926303 -2.5 0  8.411764705886863 -2.5 0  8.549019607849138 -2.5 0  8.686274509809513 -2.5 0  8.82352941176989 -2.5 0  8.960784313730265 -2.5 0  9.098039215690642 -2.5 0  9.235294117651017 -2.5 0  9.372549019611395 -2.5 0  9.50980392157177 -2.5 0  9.647058823532147 -2.5 0  9.784313725492522 -2.5 0  9.921568627452897 -2.5 0  10.05882352941327 -2.5 0  10.19607843137365 -2.5 0  10.33333333333402 -2.5 0  10.4705882352944 -2.5 0  10.60784313725478 -2.5 0  10.74509803921515 -2.5 0  10.88235294117553 -2.5 0  11.0196078431359 -2.5 0  11.15686274509628 -2.5 0  11.29411764705665 -2.5 0  11.43137254901703 -2.5 0  11.56862745097915 -2.5 0  11.70588235294301 -2.5 0  11.84313725490686 -2.5 0  11.98039215687072 -2.5 0  12.11764705883209 -2.5 0  12.25490196079247 -2.5 0  12.39215686275285 -2.5 0  12.52941176471322 -2.5 0  12.6666666666736 -2.5 0  12.80392156863397 -2.5 0  12.94117647059435 -2.5 0  13.07843137255473 -2.5 0  13.2156862745151 -2.5 0  13.35294117647548 -2.5 0  13.49019607843586 -2.5 0  13.62745098039623 -2.5 0  13.76470588235661 -2.5 0  13.90196078431699 -2.5 0  14.03921568627736 -2.5 0  14.17647058823774 -2.5 0  14.31372549019812 -2.5 0  14.45098039215849 -2.5 0  14.58823529411887 -2.5 0  14.72549019607925 -2.5 0  14.86274509803962 -2.5 0  15.20270270270254 -2.5 0  15.40540540540509 -2.5 0  15.60810810810763 -2.5 0  15.81081081081017 -2.5 0  16.01351351351227 -2.5 0  16.21621621621265 -2.5 0  16.41891891891279 -2.5 0  16.62162162161294 -2.5 0  16.82432432431308 -2.5 0  17.02702702701322 -2.5 0  17.22972972971337 -2.5 0  17.43243243241351 -2.5 0  17.63513513511365 -2.5 0  17.83783783781379 -2.5 0  18.04054054051394 -2.5 0  18.24324324321408 -2.5 0  18.44594594591422 -2.5 0  18.64864864861436 -2.5 0  18.85135135131451 -2.5 0  19.05405405401465 -2.5 0  19.25675675671479 -2.5 0  19.45945945941494 -2.5 0  19.66216216211508 -2.5 0  19.86486486481522 -2.5 0  20.06756756751536 -2.5 0  20.27027027021551 -2.5 0  20.47297297291565 -2.5 0  20.6756756756158 -2.5 0  20.87837837831594 -2.5 0  21.08108108101608 -2.5 0  21.28378378371622 -2.5 0  21.48648648641637 -2.5 0  21.68918918911651 -2.5 0  21.89189189181666 -2.5 0  22.0945945945168 -2.5 0  22.29729729721694 -2.5 0  22.49999999991778 -2.5 0  22.70270270262203 -2.5 0  22.90540540532697 -2.5 0  23.10810810803191 -2.5 0  23.31081081073686 -2.5 0  23.5135135134418 -2.5 0  23.71621621614674 -2.5 0  23.91891891885169 -2.5 0  24.12162162155663 -2.5 0  24.32432432426158 -2.5 0  24.52702702696652 -2.5 0  24.72972972967146 -2.5 0  24.93243243237641 -2.5 0  25.13513513508135 -2.5 0  25.3378378377863 -2.5 0  25.54054054049124 -2.5 0  25.74324324319618 -2.5 0  25.94594594590112 -2.5 0  26.14864864860607 -2.5 0  26.35135135131101 -2.5 0  26.55405405401596 -2.5 0  26.7567567567209 -2.5 0  26.95945945942584 -2.5 0  27.16216216213079 -2.5 0  27.36486486483573 -2.5 0  27.56756756754068 -2.5 0  27.77027027024562 -2.5 0  27.97297297295056 -2.5 0  28.1756756756555 -2.5 0  28.37837837836045 -2.5 0  28.5810810810654 -2.5 0  28.78378378377034 -2.5 0  28.98648648647528 -2.5 0  29.18918918918023 -2.5 0  29.39189189188517 -2.5 0  29.59459459459011 -2.5 0  29.79729729729506 -2.5 0  30 -3.000000000000001 0  30 -3.500000000000001 0  30 -4.000000000000001 0  30 -4.5 0  8 4.499999999999999 0  8 3.999999999999999 0  8 3.499999999999999 0  8 3 0  8.137254901963859 2.5 0  8.274509803926303 2.5 0  8.411764705886863 2.5 0  8.549019607849138 2.5 0  8.686274509809513 2.5 0  8.82352941176989 2.5 0  8.960784313730265 2.5 0  9.098039215690642 2.5 0  9.235294117651017 2.5 0  9.372549019611395 2.5 0  9.50980392157177 2.5 0  9.647058823532147 2.5 0  9.784313725492522 2.5 0  9.921568627452897 2.5 0  10.05882352941327 2.5 0  10.19607843137365 2.5 0  10.33333333333402 2.5 0  10.4705882352944 2.5 0  10.60784313725478 2.5 0  10.74509803921515 2.5 0  10.88235294117553 2.5 0  11.0196078431359 2.5 0  11.15686274509628 2.5 0  11.29411764705665 2.5 0  11.43137254901703 2.5 0  11.56862745097915 2.5 0  11.70588235294301 2.5 0  11.84313725490686 2.5 0  11.98039215687072 2.5 0  12.11764705883209 2.5 0  12.25490196079247 2.5 0  1
[...]
<PointData  Vectors="f_17"> 
<DataArray  type="Float64"  Name="f_17"  NumberOfComponents="3" format="ascii">1.0000001301133248e+00 0.0000000000000000e+00 0.0000000000000000e+00  1.0424780246043823e+00 0.0000000000000000e+00 0.0000000000000000e+00  1.0522018215076121e+00 0.0000000000000000e+00 0.0000000000000000e+00  1.0762645433810638e+00 0.0000000000000000e+00 0.0000000000000000e+00  1.0880143328331910e+00 0.0000000000000000e+00 0.0000000000000000e+00  1.0622310652992788e+00 0.0000000000000000e+00 0.0000000000000000e+00  1.0383748509568704e+00 0.0000000000000000e+00 0.0000000000000000e+00  1.0000001301133248e+00 0.0000000000000000e+00 0.0000000000000000e+00  1.0235504210353499e+00 -5.2528284989190425e-02 0.0000000000000000e+00  1.0995463023867427e+00 -5.4097655859612848e-02 0.0000000000000000e+00  1.0282444558255923e+00 -7.0857271619721496e-02 0.0000000000000000e+00  1.0929085800738962e+00 -6.6104873880951098e-02 0.0000000000000000e+00  1.0252028931443600e+00 -8.2655781718482188e-02 0.0000000000000000e+00  1.0192359913080378e+00 4.9052546230318024e-02 0.0000000000000000e+00  0.0000000000000000e+00 0.0000000000000000e+00 0.0000000000000000e+00  0.0000000000000000e+00 0.0000000000000000e+00 0.0000000000000000e+00  1.0000001301133248e+00 0.0000000000000000e+00 0.0000000000000000e+00  9.9928490389298452e-01 0.0000000000000000e+00 0.0000000000000000e+00  9.9871341107011680e-01 0.0000000000000000e+00 0.0000000000000000e+00  1.0007751321749783e+00 0.0000000000000000e+00 0.0000000000000000e+00  1.0006027556828880e+00 0.0000000000000000e+00 0.0000000000000000e+00  1.0016210065721538e+00 0.0000000000000000e+00 0.0000000000000000e+00  1.0020121161471891e+00 0.0000000000000000e+00 0.0000000000000000e+00  1.0024177591717807e+00 0.0000000000000000e+00 0.0000000000000000e+00  1.0033721246033647e+00 0.0000000000000000e+00 0.0000000000000000e+00  1.0047157282972372e+00 0.0000000000000000e+00 0.0000000000000000e+00  1.0059551791853669e+00 0.0000000000000000e+00 0.0000000000000000e+00  1.0075077760158575e+00 0.0000000000000000e+00 0.0000000000000000e+00  1.0098032140003026e+00 0.0000000000000000e+00 0.0000000000000000e+00  1.0121767668251826e+00 0.0000000000000000e+00 0.0000000000000000e+00  1.0160947493972305e+00 0.0000000000000000e+00 0.0000000000000000e+00  1.0178026351347806e+00 0.0000000000000000e+00 0.0000000000000000e+00  1.0223346972204319e+00 0.0000000000000000e+00 0.0000000000000000e+00  1.0290747750346616e+00 0.0000000000000000e+00 0.0000000000000000e+00  1.0345044841572726e+00 0.0000000000000000e+00 0.0000000000000000e+00  1.0504724322538119e+00 0.0000000000000000e+00 0.0000000000000000e+00  1.0588264696444034e+00 0.0000000000000000e+00 0.0000000000000000e+00  1.0664606784917705e+00 0.0000000000000000e+00 0.0000000000000000e+00  1.0742901256920292e+00 0.0000000000000000e+00 0.0000000000000000e+00  1.0802078661464574e+00 0.0000000000000000e+00 0.0000000000000000e+00  1.0848717064254445e+00 0.0000000000000000e+00 0.0000000000000000e+00  1.0884767049633772e+00 0.0000000000000000e+00 0.0000000000000000e+00  1.0888968379942932e+00 0.0000000000000000e+00 0.0000000000000000e+00  1.0880155332447647e+00 0.0000000000000000e+00 0.0000000000000000e+00  1.0854346074353605e+00 0.0000000000000000e+00 0.0000000000000000e+00  1.0823667226622786e+00 0.0000000000000000e+00 0.0000000000000000e+00  1.0781634197608665e+00 0.0000000000000000e+00 0.0000000000000000e+00  1.0755494043784271e+00 0.0000000000000000e+00 0.0000000000000000e+00  1.0737657217301264e+00 0.0000000000000000e+00 0.0000000000000000e+00  1.0728847159870631e+00 0.0000000000000000e+00 0.0000000000000000e+00  1.0731735650969993e+00 0.0000000000000000e+00 0.0000000000000000e+00  1.0735385132220820e+00 0.0000000000000000e+00 0.0000000000000000e+00  1.0733694883438307e+00 0.0000000000000000e+00 0.0000000000000000e+00  1.0715456992322689e+00 0.0000000000000000e+00 0.0000000000000000e+00  1.0676548316157757e+00 0.0000000000000000e+00 0.0000000000000000e+00  1.0631460690606604e+00 0.0000000000000000e+00 0.0000000000000000e+00  1.0577689400232746e+00 0.0000000000000000e+00 0.0000000000000000e+00  1.0506957620473201e+00 0.0000000000000000e+00 0.0000000000000000e+00  1.0450900268038648e+00 0.0000000000000000e+00 0.0000000000000000e+00  1.0407705326975976e+00 0.0000000000000000e+00 0.0000000000000000e+00  1.0386281787159330e+00 0.0000000000000000e+00 0.0000000000000000e+00  1.0394609221004256e+00 0.0000000000000000e+00 0.0000000000000000e+00  1.0423102677027847e+00 0.0000000000000000e+00 0.0000000000000000e+00  1.0469655941772875e+00 0.0000000000000000e+00 0.0000000000000000e+00  1.0529018804932997e+00 0.0000000000000000e+00 0.0000000000000000e+00  1.0575603563436786e+00 0.0000000000000000e+00 0.0000000000000000e+00  1.0606253324377175e+00 0.0000000000000000e+00 0.0000000000000000e+00  1.0628987325476831e+00 0.0000000000000000e+00 0.0000000000000000e+00  1.0616535203399675e+00 0.0000000000000000e+00 0.0000000000000000e+00  1.0581569423315198e+00 0.0000000000000000e+00 0.0000000000000000e+00  1.0543236982833539e+00 0.0000000000000000e+00 0.0000000000000000e+00  1.0495238049813691e+00 0.0000000000000000e+00 0.0000000000000000e+00  1.0454313876462455e+00 0.0000000000000000e+00 0.0000000000000000e+00  1.0445702128186702e+00 0.0000000000000000e+00 0.0000000000000000e+00  1.0448038979094270e+00 0.0000000000000000e+00 0.0000000000000000e+00  1.0470357246885198e+00 0.0000000000000000e+00 0.0000000000000000e+00  1.0516536864727486e+00 0.0000000000000000e+00 0.0000000000000000e+00  1.0562473667307748e+00 0.0000000000000000e+00 0.0000000000000000e+00  1.0604462888208324e+00 0.0000000000000000e+00 0.0000000000000000e+00  1.0640194022321774e+00 0.0000000000000000e+00 0.0000000000000000e+00  1.0647231646505446e+00 0.0000000000000000e+00 0.0000000000000000e+00  1.0629475083032158e+00 0.0000000000000000e+00 0.0000000000000000e+00  1.0618592333005423e+00 0.0000000000000000e+00 0.0000000000000000e+00  1.0578497553852466e+00 0.0000000000000000e+00 0.0000000000000000e+00  1.0521587452450643e+00 0.0000000000000000e+00 0.0000000000000000e+00  1.0486480701616301e+00 0.0000000000000000e+00 0.0000000000000000e+00  1.0484038656336891e+00 0.0000000000000000e+00 0.0000000000000000e+00  1.0492282034480143e+00 0.0000000000000000e+00 0.0000000000000000e+00  1.0561558455248123e+00 0.0000000000000000e+00 0.0000000000000000e+00  1.0595803201133238e+00 0.0000000000000000e+00 0.0000000000000000e+00  1.0623863580328392e+00 0.0000000000000000e+00 0.0000000000000000e+00  1.0646886224869347e+00 0.0000000000000000e+00 0.0000000000000000e+00  1.0649392516301239e+00 0.0000000000000000e+00 0.0000000000000000e+00  1.0630200085880335e+00 0.0000000000000000e+00 0.0000000000000000e+00  1.0596203726096374e+00 0.0000000000000000e+00 0.0000000000000000e+00  1.0562365848326527e+00 0.0000000000000000e+00 0.0000000000000000e+00  1.0533227108520018e+00 0.0000000000000000e+00 0.0000000000000000e+00  1.0515011329606083e+00 0.0000000000000000e+00 0.0000000000000000e+00  1.0520492258737915e+00 0.0000000000000000e+00 0.0000000000000000e+00  1.0545094468511098e+00 0.0000000000000000e+00 0.0000000000000000e+00  1.0580715732509247e+00 0.0000000000000000e+00 0.0000000000000000e+00  1.0628316192595904e+00 0.0000000000000000e+00 0.0000000000000000e+00  1.0671549305409740e+00 0.0000000000000000e+00 0.0000000000000000e+00  1.0708790015509264e+00 0.0000000000000000e+00 0.0000000000000000e+00  1.0719303158975699e+00 0.0000000000000000e+00 0.0000000000000000e+00  1.0719257271028173e+00 0.0000000000000000e+00 0.0000000000000000e+00  1.0704106402303717e+00 0.0000000000000000e+00 0.0000000000000000e+00  1.0692210309788110e+00 0.0000000000000000e+00 0.0000000000000000e+00  1.0679536452196561e+00 0.0000000000000000e+00 0.0000000000000000e+00  1.0688816708485027e+00 0.0000000000000000e+00 0.0000000000000000e+00  1.0710246303795918e+00 0.0000000000000000e+00 0.0000000000000000e+00  1.0758989972056192e+00 -6.1552767999975095e-03 0.0000000000000000e+00  1.0736924579125879e+00 -1.3130984335550691e-02 0.0000000000000000e+00  1.0687904942515283e+00 -2.1556612502722734e-02 0.0000000000000000e+00  1.0573247342397416e+00 -3.2032324693231626e-02 0.0000000000000000e+00  1.0384289162068345e+00 -4.7273428243565202e-02 0.0000000000000000e+00  1.0096181206640507e+00 -6.7651236015672397e-02 0.0000000000000000e+00  9.7300146606317006e-01 -1.0507894477742388e-01 0.0000000000000000e+00  9.2546742655506564e-01 -1.4815173299174894e-01 0.0000000000000000e+00  8.5943128760274368e-01 -1.8672037832304694e-01 0.0000000000000000e+00  7.8799512638158031e-01 -2.1406039181341965e-01 0.0000000000000000e+00  7.3478549728652431e-01 -2.2880315533332210e-01 0.0000000000000000e+00  7.2314787510928868e-01 -2.3409360779490812e-01 0.0000000000000000e+00  7.6807531311966248e-01 -2.3009060109287918e-01 0.0000000000000000e+00  8.6891718975188881e-01 -2.1368991348327257e-01 0.0000000000000000e+00  9.9565121667513945e-01 -1.7761775805608374e-01 0.0000000000000000e+00  1.1012799787950369e+00 -1.2671509151164162e-01 0.0000000000000000e+00  1.1534250115345015e+00 -8.0299329285211038e-02 0.0000000000000000e+00  1.1592090762532499e+00 -4.1960770136470142e-02 0.0000000000000000e+00  1.1384558681183929e+00 -2.1242340366226343e-02 0.0000000000000000e+00  1.1159231828788883e+00 -8.2836551463255827e-03 0.0000000000000000e+00  1.1012708681576362e+00 -2.4953046065701438e-03 0.0000000000000000e+00  1.0941323393969913e+00 -3.1555866097232870e-04 0.0000000000000000e+00  1.0898160920869553e+00 6.5448859289499528e-05 0.0000000000000000e+00  1.0866553283933764e+00 0.0000000000000000e+00 0.0000000000000000e+00  1.0834676471831794e+00 0.0000000000000000e+00 0.0000000000000000e+00  1.0784400646094869e+00 0.0000000000000000e+00 0.0000000000000000e+00  1.0726764162041402e+00 0.0000000000000000e+00 0.0000000000000000e+00  1.0662637691582537e+00 0.0000000000000000e+00 0.0000000000000000e+00  1.0614267824376828e+00 0.0000000000000000e+00 0.0000000000000000e+00  1.0584915086569802e+00 0.0000000000000000e+00 0.0000000000000000e+00  1.0579988155623115e+00 0.0000000000000000e+00 0.0000000000000000e+00  1.0588645446729048e+00 0.0000000000000000e+00 0.0000000000000000e+00  1.0614357285598319e+00 0.0000000000000000e+00 0.0000000000000000e+00  1.0643694900995539e+00 0.0000000000000000e+00 0.0000000000000000e+00  1.0666884150358440e+00 0.0000000000000000e+00 0.0000000000000000e+00  1.0677128666174713e+00 0.0000000000000000e+00 0.0000000000000000e+00  1.0676626766415844e+00 0.0000000000000000e+00 0.0000000000000000e+00  1.0649423067266748e+00 0.0000000000000000e+00 0.0000000000000000e+00  1.0619480857302561e+00 0.0000000000000000e+00 0.0000000000000000e+00  1.0570450636084214e+00 0.0000000000000000e+00 0.0000000000000000e+00  1.0531369591000059e+00 0.0000000000000000e+00 0.0000000000000000e+00  1.0504131345902414e+00 0.0000000000000000e+00 0.0000000000000000e+00  1.0501605130670921e+00 0.0000000000000000e+00 0.0000000000000000e+00  1.0516355968374949e+00 0.0000000000000000e+00 0.0000000000000000e+00  1.0544953539022019e+00 0.0000000000000000e+00 0.0000000000000000e+00  1.0585517041817250e+00 0.0000000000000000e+00 0.0000000000000000e+00  1.0638626210816362e+00 0.0000000000000000e+00 0.0000000000000000e+00  1.0644164466953874e+00 0.0000000000000000e+00 0.0000000000000000e+00  1.0619213573691282e+00 0.0000000000000000e+00 0.0000000000000000e+00  1.0592483095357084e+00 0.0000000000000000e+00 0.0000000000000000e+00  1.0564567523322037e+00 0.0000000000000000e+00 0.0000000000000000e+00  1.0525842736185431e+00 0.0000000000000000e+00 0.0000000000000000e+00  1.0477107345409620e+00 0.0000000000000000e+00 0.0000000000000000e+00  1.0468149457013010e+00 0.0000000000000000e+00 0.0000000000000000e+00  1.0477934185038829e+00 0.0000000000000000e+00 0.0000000000000000e+00  1.0497861550784175e+00 0.0000000000000000e+00 0.0000000000000000e+00  1.0536897753806924e+00 0.0000000000000000e+00 0.0000000000000000e+00  1.0580171548217572e+00 0.0000000000000000e+00 0.0000000000000000e+00  1.0610091494684617e+00 0.0000000000000000e+00 0.0000000000000000e+00  1.0631357616275698e+00 0.0000000000000000e+00 0.0000000000000000e+00  1.0628384077891200e+00 0.0000000000000000e+00 0.0000000000000000e+00  1.0594229432682065e+00 0.0000000000000000e+00 0.0000000000000000e+00  1.0554028083053524e+00 0.0000000000000000e+00 0.0000000000000000e+00  1.0504142164568098e+00 0.0000000000000000e+00 0.0000000000000000e+00  1.0446983052301928e+00 0.0000000000000000e+00 0.0000000000000000e+00  1.0413270009066657e+00 0.0000000000000000e+00 0.0000000000000000e+00  1.0398206164296797e+00 0.0000000000000000e+00 0.0000000000000000e+00  1.0396102471671100e+00 0.0000000000000000e+00 0.0000000000000000e+00  1.0431372552050497e+00 0.0000000000000000e+00 0.0000000000000000e+00  1.0481480797428064e+00 0.0000000000000000e+00 0.0000000000000000e+00  1.0531222224768289e+00 0.0000000000000000e+00 0.0000000000000000e+00  1.0580475054520000e+00 0.0000000000000000e+00 0.0000000000000000e+00  1.0616579228886078e+00 0.0000000000000000e+00 0.0000000000000000e+00  1.0627146065484681e+00 0.0000000000000000e+00 0.0000000000000000e+00  1.0619077147661693e+00 0.0000000000000000e+00 0.0000000000000000e+00  1.0591263793454864e+00 0.0000000000000000e+00 0.0000000000000000e+00  1.0550576209292397e+00 0.0000000000000000e+00 0.0000000000000000e+00  1.0517336943411484e+00 0.0000000000000000e+00 0.0000000000000000e+00  1.0484178242391038e+00 0.0000000000000000e+00 0.0000000000000000e+00  1.0474236339611289e+00 0.0000000000000000e+00 0.0000000000000000e+00  1.0495977789924538e+00 0.0000000000000000e+00 0.0000000000000000e+00  1.0540162151916335e+00 0.0000000000000000e+00 0.0000000000000000e+00  1.0598367404197122e+00 0.0000000000000000e+00 0.0000000000000000e+00  1.0665348126921457e+00 0.0000000000000000e+00 0.0000000000000000e+00  1.0740194703559482e+00 0.0000000000000000e+00 0.0000000000000000e+00  1.0819139366049457e+00 0.0000000000000000e+00 0.0000000000000000e+00  1.0880529361709568e+00 0.0000000000000000e+00 0.0000000000000000e+00  1.0924388311341369e+00 0.0000000000000000e+00 0.0000000000000000e+00  1.0965144855812656e+00 0.0000000000000000e+00 0.0000000000000000e+00  1.0970626742775589e+00 0.0000000000000000e+00 0.0000000000000000e+00  1.0967267302987240e+00 0.0000000000000000e+00 0.0000000000000000e+00  1.0943201907131077e+00 0.0000000000000000e+00 0.0000000000000000e+00  1.0897697570603520e+00 0.0000000000000000e+00 0.0000000000000000e+00  1.0840249529924886e+00 0.0000000000000000e+00 0.0000000000000000e+00  1.0775055146617856e+00 0.0000000000000000e+00 0.0000000000000000e+00  1.0702340662058465e+00 0.0000000000000000e+00 0.0000000000000000e+00  1.0617813722187475e+00 0.0000000000000000e+00 0.0000000000000000e+00  1.0541862676675624e+00 0.0000000000000000e+00 0.0000000000000000e+00  1.0460683051697111e+00 0.0000000000000000e+00 0.0000000000000000e+00  1.0309734514068227e+00 0.0000000000000000e+00 0.0000000000000000e+00  1.0245449330010943e+00 0.0000000000000000e+00 0.0000000000000000e+00  1.0194664125177941e+00 0.0000000000000000e+00 0.0000000000000000e+00  1.0149097520409469e+00 0.0000000000000000e+00 0.0000000000000000e+00  1.0111980362421724e+00 0.0000000000000000e+00 0.0000000000000000e+00  1.0082874329303362e+00 0.0000000000000000e+00 0.0000000000000000e+00  1.0061183584340598e+00 0.0000000000000000e+00 0.0000000000000000e+00  1.0040428125096996e+00 0.0000000000000000e+00 0.0000000000000000e+00  1.0026812601917194e+00 0.0000000000000000e+00 0.0000000000000000e+00  1.0018132409446363e+00 0.0000000000000000e+00 0.0000000000000000e+00  1.0008100231850507e+00 0.0000000000000000e+00 0.0000000000000000e+00  1.0008274892310640e+00 0.0000000000000000e+00 0.0000000000000000e+00  9.9994037335665820e-01 0.0000000000000000e+00 0.0000000000000000e+00  1.0000602845674658e+00 0.0000000000000000e+00 0.0000000000000000e+00  9.9974752880390405e-01 0.0000000000000000e+00 0.0000000000000000e+00  1.0004881466145321e+00 0.0000000000000000e+00 0.0000000000000000e+00  1.0002585522095873e+00 0.0000000000000000e+00 0.0000000000000000e+00  9.9980064254636658e-01 0.0000000000000000e+00 0.0000000000000000e+00  1.0000001301133248e+00 0.0000000000000000e+00 0.0000000000000000e+00  1.0000001301133248e+00 0.0000000000000000e+00 0.0000000000000000e+00  1.0000001301133248e+00 0.0000000000000000e+00 0.0000000000000000e+00  1.0000001301133248e+00 0.0000000000000000e+00 0.0000000000000000e+00  1.0000001301133248e+00 0.0000000000000000e+00 0.0000000000000000e+00  1.0000001301133248e+00 0.0000000000000000e+00 0.0000000000000000e+00  1.0000001301133248e+00 0.0000000000000000e+00 0.0000000000000000e+00  1.0000001301133248e+00 0.0000000000000000e+00 0.0000000000000000e+00  1.0000001301133248e+00 0.0000000000000000e+00 0.0000000000000000e+00  1.0000001301133248e+00 0.0000000000000000e+00 0.0000000000000000e+00  1.0000001301133248e+00 0.0000000000000000e+00 0.0000000000000000e+00  1.0000001301133248e+00 0.0000000000000000e+00 0.0000000000000000e+00  1.0000001301133248e+00 0.0000000000000000e+00 0.0000000000000000e+00  1.0000001301133248e+00 0.0000000000000000e+00 0.0000000000000000e+00  1.0000001301133248e+00 0.0000000000000000e+00 0.0000000000000000e+00  1.0000001301133248e+00 0.0000000000000000e+00 0.0000000000000000e+00  1.0000001301133248e+00 0.0000000000000000e+00 0.0000000000000000e+00  1.0000001301133248e+00 0.0000000000000000e+00 0.0000000000000000e+00  1.0000001301133248e+00 0.0000000000000000e+00 0.0000000000000000e+00  1.0000001301133248e+00 0.0000000000000000e+00 0.0000000000000000e+00  1.0419394672190077e+00 -9.4141295261852692e-03 0.0000000000000000e+00  1.0391390181510329e+00 -1.9066939458036721e-02 0.0000000000000000e+00  1.0372022829075507e+00 -2.9605765383097445e-02 0.0000000000000000e+00  1.0318182783369834e+00 -4.0823429992890140e-02 0.0000000000000000e+00  1.0264339069570780e+00 -5.6238908361847716e-02 0.0000000000000000e+00  1.0310762175968098e+00 -5.9567241003930904e-02 0.0000000000000000e+00  1.0353517732866320e+00 -6.2931651940800359e-02 0.0000000000000000e+00  1.0406584440656044e+00 -6.5953126143355023e-02 0.0000000000000000e+00  1.0462430333715895e+00 -6.8772346342762303e-02 0.0000000000000000e+00  1.0524625813477904e+00 -7.1120878220989309e-02 0.0000000000000000e+00  1.0592612728663318e+00 -7.3043435374051571e-02 0.0000000000000000e+00  1.0665066436055262e+00 -7.4230071123348021e-02 0.0000000000000000e+00  1.0742465575840261e+00 -7.4785782034802559e-02 0.0000000000000000e+00  1.0820938376459692e+00 -7.4363689922832293e-02 0.0000000000000000e+00  1.0902310988821058e+00 -7.3187582188371389e-02 0.0000000000000000e+00  1.0983608227443509e+00 -7.1124306740919976e-02 0.0000000000000000e+00  1.1065020298930195e+00 -6.7874676753774760e-02 0.0000000000000000e+00  1.1141822579240053e+00 -6.3564485197133327e-02 0.0000000000000000e+00  1.1214576237083547e+00 -5.8415004562879215e-02 0.0000000000000000e+00  1.1281517482152601e+00 -5.2324730353869094e-02 0.0000000000000000e+00  1.1339970499830450e+00 -4.5332520567171943e-02 0.0000000000000000e+00  1.1389866006569147e+00 -3.7625283492846044e-02 0.0000000000000000e+00  1.1429373995392380e+00 -2.9338892560202286e-02 0.0000000000000000e+00  1.1458268420655309e+00 -2.0387826739962030e-02 0.0000000000000000e+00  1.1475477089876398e+00 -1.1328064633359039e-02 0.0000000000000000e+00  1.1480630491064563e+00 -1.8912889964055406e-03 0.0000000000000000e+00  1.1471411194676018e+00 7.6464037306902466e-03 0.0000000000000000e+00  1.1451065669110887e+00 1.6932496352741713e-02 0.0000000000000000e+00  1.1416040112391865e+00 2.5830970530422739e-02 0.0000000000000000e+00  1.1368812680685325e+00 3.4225761269397262e-02 0.0000000000000000e+00  1.1309061876820443e+00 4.1894763867744961e-02 0.0000000000000000e+00  1.1237842785703005e+00 4.8486575107138524e-02 0.0000000000000000e+00  1.1156902548102827e+00 5.4066255423187159e-02 0.0000000000000000e+00  1.1067390808205473e+00 5.8448209886234732e-02 0.0000000000000000e+00  1.0972461694794831e+00 6.1311228606301747e-02 0.0000000000000000e+00  1.0873366582571813e+00 6.2687