<?xml version="1.0"?>
<VTKFile type="UnstructuredGrid"  version="0.1"  >
<UnstructuredGrid>
<Piece  NumberOfPoints="10199" NumberOfCells="20110">
<Points>
<DataArray  type="Float64"  NumberOfComponents="3"  format="ascii">0 -5 0  8 -5 0  30 -5 0  40 -5 0  40 5 0  30 5 0  8 5 0  0 5 0  8 -2.5 0  15 -2.5 0  30 -2.5 0  30 2.5 0  15 2.5 0  8 2.5 0  10 0.5 0  10 -0.5 0  0 0 0  0.4210526315780956 -5 0  0.8421052631563433 -5 0  1.263157894734281 -5 0  1.684210526311999 -5 0  2.105263157889717 -5 0  2.526315789467435 -5 0  2.947368421045153 -5 0  3.368421052622872 -5 0  3.78947368420059 -5 0  4.210526315779479 -5 0  4.631578947359537 -5 0  5.052631578939595 -5 0  5.473684210519653 -5 0  5.89473684209971 -5 0  6.315789473679768 -5 0  6.736842105259826 -5 0  7.157894736839884 -5 0  7.578947368419942 -5 0  8.407407407405314 -5 0  8.814814814810628 -5 0  9.222222222215942 -5 0  9.629629629621256 -5 0  10.03703703702657 -5 0  10.44444444443188 -5 0  10.8518518518372 -5 0  11.25925925924251 -5 0  11.66666666664783 -5 0  12.07407407405314 -5 0  12.48148148145846 -5 0  12.88888888886377 -5 0  13.29629629626908 -5 0  13.7037037036744 -5 0  14.11111111107971 -5 0  14.51851851848502 -5 0  14.92592592589034 -5 0  15.33333333329565 -5 0  15.74074074070096 -5 0  16.14814814810754 -5 0  16.55555555551614 -5 0  16.96296296292474 -5 0  17.37037037033335 -5 0  17.77777777774195 -5 0  18.18518518515056 -5 0  18.59259259255916 -5 0  18.99999999996776 -5 0  19.40740740737636 -5 0  19.81481481478497 -5 0  20.22222222219357 -5 0  20.62962962960217 -5 0  21.03703703701077 -5 0  21.44444444441937 -5 0  21.85185185182797 -5 0  22.25925925923657 -5 0  22.66666666664518 -5 0  23.07407407405378 -5 0  23.48148148146238 -5 0  23.88888888887098 -5 0  24.29629629627958 -5 0  24.70370370368818 -5 0  25.11111111109678 -5 0  25.51851851850539 -5 0  25.92592592591399 -5 0  26.33333333332259 -5 0  26.74074074073119 -5 0  27.14814814813979 -5 0  27.55555555554839 -5 0  27.96296296295699 -5 0  28.3703703703656 -5 0  28.7777777777742 -5 0  29.1851851851828 -5 0  29.5925925925914 -5 0  30.41666666667852 -5 0  30.83333333335704 -5 0  31.25000000003556 -5 0  31.66666666671408 -5 0  32.08333333338936 -5 0  32.50000000005308 -5 0  32.9166666667168 -5 0  33.33333333338052 -5 0  33.75000000004424 -5 0  34.16666666670795 -5 0  34.58333333337167 -5 0  35.00000000003539 -5 0  35.41666666669911 -5 0  35.83333333336282 -5 0  36.25000000002654 -5 0  36.66666666669026 -5 0  37.08333333335398 -5 0  37.50000000001769 -5 0  37.91666666668141 -5 0  38.33333333334513 -5 0  38.75000000000885 -5 0  39.16666666667257 -5 0  39.58333333333628 -5 0  40 -4.583333333332821 0  40 -4.166666666665642 0  40 -3.74999999999855 0  40 -3.333333333333135 0  40 -2.916666666667806 0  40 -2.500000000002478 0  40 -2.083333333337148 0  40 -1.666666666671818 0  40 -1.250000000006488 0  40 -0.8333333333405228 0  40 -0.4166666666733416 0  40 -6.163070054299169e-12 0  40 0.4166666666610173 0  40 0.8333333333281976 0  40 1.249999999995378 0  40 1.666666666662558 0  40 2.083333333329739 0  40 2.499999999996919 0  40 2.916666666664099 0  40 3.33333333333128 0  40 3.74999999999846 0  40 4.166666666665641 0  40 4.583333333332821 0  39.58333333333628 5 0  39.16666666667256 5 0  38.75000000000885 5 0  38.33333333334513 5 0  37.91666666668141 5 0  37.50000000001769 5 0  37.08333333335398 5 0  36.66666666669025 5 0  36.25000000002654 5 0  35.83333333336282 5 0  35.41666666669911 5 0  35.00000000003539 5 0  34.58333333337167 5 0  34.16666666670795 5 0  33.75000000004424 5 0  33.33333333338052 5 0  32.9166666667168 5 0  32.50000000005308 5 0  32.08333333338936 5 0  31.66666666671408 5 0  31.25000000003556 5 0  30.83333333335704 5 0  30.41666666667852 5 0  29.59259259259259 5 0  29.18518518518519 5 0  28.77777777777778 5 0  28.37037037037037 5 0  27.96296296296296 5 0  27.55555555555556 5 0  27.14814814814815 5 0  26.74074074074074 5 0  26.33333333333333 5 0  25.92592592592593 5 0  25.51851851851852 5 0  25.11111111111111 5 0  24.7037037037037 5 0  24.2962962962963 5 0  23.88888888888889 5 0  23.48148148148148 5 0  23.07407407407408 5 0  22.66666666666667 5 0  22.25925925925926 5 0  21.85185185185185 5 0  21.44444444444445 5 0  21.03703703703704 5 0  20.62962962962963 5 0  20.22222222222222 5 0  19.81481481481482 5 0  19.40740740740741 5 0  19 5 0  18.5925925925926 5 0  18.18518518518519 5 0  17.77777777777778 5 0  17.37037037037037 5 0  16.96296296296296 5 0  16.55555555555556 5 0  16.14814814814815 5 0  15.74074074074074 5 0  15.33333333333333 5 0  14.92592592592593 5 0  14.51851851851852 5 0  14.11111111111111 5 0  13.70370370370371 5 0  13.2962962962963 5 0  12.88888888888889 5 0  12.48148148148148 5 0  12.07407407407408 5 0  11.66666666666667 5 0  11.25925925925926 5 0  10.85185185185185 5 0  10.44444444444445 5 0  10.03703703703704 5 0  9.629629629629633 5 0  9.222222222222221 5 0  8.814814814814817 5 0  8.407407407407408 5 0  7.5789473684193 5 0  7.157894736838599 5 0  6.73684210526082 5 0  6.315789473684795 5 0  5.894736842108769 5 0  5.473684210532742 5 0  5.052631578956715 5 0  4.631578947380689 5 0  4.210526315804662 5 0  3.789473684226299 5 0  3.368421052645599 5 0  2.947368421064898 5 0  2.526315789484198 5 0  2.105263157903499 5 0  1.6842105263228 5 0  1.2631578947421 5 0  0.8421052631613994 5 0  0.4210526315806993 5 0  0 4.545454545454545 0  0 4.09090909090909 0  0 3.636363636363634 0  0 3.18181818181818 0  0 2.727272727272726 0  0 2.272727272727271 0  0 1.818181818181817 0  0 1.363636363636363 0  0 0.9090909090909092 0  0 0.454545454545455 0  0 -0.4545454545450807 0  0 -0.9090909090895867 0  0 -1.363636363633713 0  0 -1.818181818177841 0  0 -2.272727272723127 0  0 -2.727272727269273 0  0 -3.181818181815419 0  0 -3.636363636361564 0  0 -4.090909090907709 0  0 -4.545454545453855 0  8 -4.499999999999999 0  8 -3.999999999999999 0  8 -3.499999999999999 0  8 -3 0  8.137254901963859 -2.5 0  8.274509803926303 -2.5 0  8.411764705886863 -2.5 0  8.549019607849138 -2.5 0  8.686274509809513 -2.5 0  8.82352941176989 -2.5 0  8.960784313730265 -2.5 0  9.098039215690642 -2.5 0  9.235294117651017 -2.5 0  9.372549019611395 -2.5 0  9.50980392157177 -2.5 0  9.647058823532147 -2.5 0  9.784313725492522 -2.5 0  9.921568627452897 -2.5 0  10.05882352941327 -2.5 0  10.19607843137365 -2.5 0  10.33333333333402 -2.5 0  10.4705882352944 -2.5 0  10.60784313725478 -2.5 0  10.74509803921515 -2.5 0  10.88235294117553 -2.5 0  11.0196078431359 -2.5 0  11.15686274509628 -2.5 0  11.29411764705665 -2.5 0  11.43137254901703 -2.5 0  11.56862745097915 -2.5 0  11.70588235294301 -2.5 0  11.84313725490686 -2.5 0  11.98039215687072 -2.5 0  12.11764705883209 -2.5 0  12.25490196079247 -2.5 0  12.39215686275285 -2.5 0  12.52941176471322 -2.5 0  12.6666666666736 -2.5 0  12.80392156863397 -2.5 0  12.94117647059435 -2.5 0  13.07843137255473 -2.5 0  13.2156862745151 -2.5 0  13.35294117647548 -2.5 0  13.49019607843586 -2.5 0  13.62745098039623 -2.5 0  13.76470588235661 -2.5 0  13.90196078431699 -2.5 0  14.03921568627736 -2.5 0  14.17647058823774 -2.5 0  14.31372549019812 -2.5 0  14.45098039215849 -2.5 0  14.58823529411887 -2.5 0  14.72549019607925 -2.5 0  14.86274509803962 -2.5 0  15.20270270270254 -2.5 0  15.40540540540509 -2.5 0  15.60810810810763 -2.5 0  15.81081081081017 -2.5 0  16.01351351351227 -2.5 0  16.21621621621265 -2.5 0  16.41891891891279 -2.5 0  16.62162162161294 -2.5 0  16.82432432431308 -2.5 0  17.02702702701322 -2.5 0  17.22972972971337 -2.5 0  17.43243243241351 -2.5 0  17.63513513511365 -2.5 0  17.83783783781379 -2.5 0  18.04054054051394 -2.5 0  18.24324324321408 -2.5 0  18.44594594591422 -2.5 0  18.64864864861436 -2.5 0  18.85135135131451 -2.5 0  19.05405405401465 -2.5 0  19.25675675671479 -2.5 0  19.45945945941494 -2.5 0  19.66216216211508 -2.5 0  19.86486486481522 -2.5 0  20.06756756751536 -2.5 0  20.27027027021551 -2.5 0  20.47297297291565 -2.5 0  20.6756756756158 -2.5 0  20.87837837831594 -2.5 0  21.08108108101608 -2.5 0  21.28378378371622 -2.5 0  21.48648648641637 -2.5 0  21.68918918911651 -2.5 0  21.89189189181666 -2.5 0  22.0945945945168 -2.5 0  22.29729729721694 -2.5 0  22.49999999991778 -2.5 0  22.70270270262203 -2.5 0  22.90540540532697 -2.5 0  23.10810810803191 -2.5 0  23.31081081073686 -2.5 0  23.5135135134418 -2.5 0  23.71621621614674 -2.5 0  23.91891891885169 -2.5 0  24.12162162155663 -2.5 0  24.32432432426158 -2.5 0  24.52702702696652 -2.5 0  24.72972972967146 -2.5 0  24.93243243237641 -2.5 0  25.13513513508135 -2.5 0  25.3378378377863 -2.5 0  25.54054054049124 -2.5 0  25.74324324319618 -2.5 0  25.94594594590112 -2.5 0  26.14864864860607 -2.5 0  26.35135135131101 -2.5 0  26.55405405401596 -2.5 0  26.7567567567209 -2.5 0  26.95945945942584 -2.5 0  27.16216216213079 -2.5 0  27.36486486483573 -2.5 0  27.56756756754068 -2.5 0  27.77027027024562 -2.5 0  27.97297297295056 -2.5 0  28.1756756756555 -2.5 0  28.37837837836045 -2.5 0  28.5810810810654 -2.5 0  28.78378378377034 -2.5 0  28.98648648647528 -2.5 0  29.18918918918023 -2.5 0  29.39189189188517 -2.5 0  29.59459459459011 -2.5 0  29.79729729729506 -2.5 0  30 -3.000000000000001 0  30 -3.500000000000001 0  30 -4.000000000000001 0  30 -4.5 0  8 4.499999999999999 0  8 3.999999999999999 0  8 3.499999999999999 0  8 3 0  8.137254901963859 2.5 0  8.274509803926303 2.5 0  8.411764705886863 2.5 0  8.549019607849138 2.5 0  8.686274509809513 2.5 0  8.82352941176989 2.5 0  8.960784313730265 2.5 0  9.098039215690642 2.5 0  9.235294117651017 2.5 0  9.372549019611395 2.5 0  9.50980392157177 2.5 0  9.647058823532147 2.5 0  9.784313725492522 2.5 0  9.921568627452897 2.5 0  10.05882352941327 2.5 0  10.19607843137365 2.5 0  10.33333333333402 2.5 0  10.4705882352944 2.5 0  10.60784313725478 2.5 0  10.74509803921515 2.5 0  10.88235294117553 2.5 0  11.0196078431359 2.5 0  11.15686274509628 2.5 0  11.29411764705665 2.5 0  11.43137254901703 2.5 0  11.56862745097915 2.5 0  11.70588235294301 2.5 0  11.84313725490686 2.5 0  11.98039215687072 2.5 0  12.11764705883209 2.5 0  12.25490196079247 2.5 0  1
[...]
<PointData  Vectors="f_17"> 
<DataArray  type="Float64"  Name="f_17"  NumberOfComponents="3" format="ascii">1.0000001338336650e+00 0.0000000000000000e+00 0.0000000000000000e+00  1.0498483859478240e+00 0.0000000000000000e+00 0.0000000000000000e+00  9.9623822113595206e-01 0.0000000000000000e+00 0.0000000000000000e+00  9.9770245596265217e-01 0.0000000000000000e+00 0.0000000000000000e+00  9.9779802759777680e-01 0.0000000000000000e+00 0.0000000000000000e+00  9.9637415467293422e-01 0.0000000000000000e+00 0.0000000000000000e+00  1.0492164621423772e+00 0.0000000000000000e+00 0.0000000000000000e+00  1.0000001338336650e+00 0.0000000000000000e+00 0.0000000000000000e+00  1.0222336108760617e+00 -6.0738163790588016e-02 0.0000000000000000e+00  1.1221354912887060e+00 6.7992477165963711e-02 0.0000000000000000e+00  1.0014720809781283e+00 9.1294136663530676e-04 0.0000000000000000e+00  1.0011682772202450e+00 -9.3889941010999478e-04 0.0000000000000000e+00  1.1203783563029523e+00 -6.8520303058735021e-02 0.0000000000000000e+00  1.0218040218983728e+00 6.0697243870363606e-02 0.0000000000000000e+00  0.0000000000000000e+00 0.0000000000000000e+00 0.0000000000000000e+00  0.0000000000000000e+00 0.0000000000000000e+00 0.0000000000000000e+00  1.0000001338336650e+00 0.0000000000000000e+00 0.0000000000000000e+00  9.9931287464582896e-01 0.0000000000000000e+00 0.0000000000000000e+00  9.9879092820033510e-01 0.0000000000000000e+00 0.0000000000000000e+00  1.0008388671467003e+00 0.0000000000000000e+00 0.0000000000000000e+00  1.0006984173465971e+00 0.0000000000000000e+00 0.0000000000000000e+00  1.0016986049230989e+00 0.0000000000000000e+00 0.0000000000000000e+00  1.0020758968823271e+00 0.0000000000000000e+00 0.0000000000000000e+00  1.0024401029932692e+00 0.0000000000000000e+00 0.0000000000000000e+00  1.0033511245336644e+00 0.0000000000000000e+00 0.0000000000000000e+00  1.0046984424852341e+00 0.0000000000000000e+00 0.0000000000000000e+00  1.0059906667316194e+00 0.0000000000000000e+00 0.0000000000000000e+00  1.0076955043367479e+00 0.0000000000000000e+00 0.0000000000000000e+00  1.0102055333428543e+00 0.0000000000000000e+00 0.0000000000000000e+00  1.0129348332078558e+00 0.0000000000000000e+00 0.0000000000000000e+00  1.0173897449556615e+00 0.0000000000000000e+00 0.0000000000000000e+00  1.0197887008869868e+00 0.0000000000000000e+00 0.0000000000000000e+00  1.0252603035862409e+00 0.0000000000000000e+00 0.0000000000000000e+00  1.0330982256634653e+00 0.0000000000000000e+00 0.0000000000000000e+00  1.0399473760498217e+00 0.0000000000000000e+00 0.0000000000000000e+00  1.0601458743567964e+00 0.0000000000000000e+00 0.0000000000000000e+00  1.0713628263317270e+00 0.0000000000000000e+00 0.0000000000000000e+00  1.0825791697304576e+00 0.0000000000000000e+00 0.0000000000000000e+00  1.0948913023993729e+00 0.0000000000000000e+00 0.0000000000000000e+00  1.1060513467017152e+00 0.0000000000000000e+00 0.0000000000000000e+00  1.1168593337630806e+00 0.0000000000000000e+00 0.0000000000000000e+00  1.1272443617341044e+00 0.0000000000000000e+00 0.0000000000000000e+00  1.1347397016124654e+00 0.0000000000000000e+00 0.0000000000000000e+00  1.1409029053453617e+00 0.0000000000000000e+00 0.0000000000000000e+00  1.1445888962940240e+00 0.0000000000000000e+00 0.0000000000000000e+00  1.1463003835103811e+00 0.0000000000000000e+00 0.0000000000000000e+00  1.1447671877076271e+00 0.0000000000000000e+00 0.0000000000000000e+00  1.1422220236426401e+00 0.0000000000000000e+00 0.0000000000000000e+00  1.1372966904376443e+00 0.0000000000000000e+00 0.0000000000000000e+00  1.1309097699717343e+00 0.0000000000000000e+00 0.0000000000000000e+00  1.1237143727343655e+00 0.0000000000000000e+00 0.0000000000000000e+00  1.1154002570447916e+00 0.0000000000000000e+00 0.0000000000000000e+00  1.1067727362540327e+00 0.0000000000000000e+00 0.0000000000000000e+00  1.0973644089847328e+00 0.0000000000000000e+00 0.0000000000000000e+00  1.0878114211887286e+00 0.0000000000000000e+00 0.0000000000000000e+00  1.0793538136290828e+00 0.0000000000000000e+00 0.0000000000000000e+00  1.0718565975502421e+00 0.0000000000000000e+00 0.0000000000000000e+00  1.0634597265686991e+00 0.0000000000000000e+00 0.0000000000000000e+00  1.0565836152284076e+00 0.0000000000000000e+00 0.0000000000000000e+00  1.0501829453632689e+00 0.0000000000000000e+00 0.0000000000000000e+00  1.0443665555868469e+00 0.0000000000000000e+00 0.0000000000000000e+00  1.0395109452851066e+00 0.0000000000000000e+00 0.0000000000000000e+00  1.0348997785115850e+00 0.0000000000000000e+00 0.0000000000000000e+00  1.0307837490058680e+00 0.0000000000000000e+00 0.0000000000000000e+00  1.0275108398412356e+00 0.0000000000000000e+00 0.0000000000000000e+00  1.0238971593310238e+00 0.0000000000000000e+00 0.0000000000000000e+00  1.0204330595446816e+00 0.0000000000000000e+00 0.0000000000000000e+00  1.0187835374724648e+00 0.0000000000000000e+00 0.0000000000000000e+00  1.0162645132280874e+00 0.0000000000000000e+00 0.0000000000000000e+00  1.0137747785208198e+00 0.0000000000000000e+00 0.0000000000000000e+00  1.0124170051001620e+00 0.0000000000000000e+00 0.0000000000000000e+00  1.0103100084646919e+00 0.0000000000000000e+00 0.0000000000000000e+00  1.0081714053172406e+00 0.0000000000000000e+00 0.0000000000000000e+00  1.0075984316778250e+00 0.0000000000000000e+00 0.0000000000000000e+00  1.0061682599962727e+00 0.0000000000000000e+00 0.0000000000000000e+00  1.0047087096411045e+00 0.0000000000000000e+00 0.0000000000000000e+00  1.0040844363424066e+00 0.0000000000000000e+00 0.0000000000000000e+00  1.0028243319607795e+00 0.0000000000000000e+00 0.0000000000000000e+00  1.0016446393703942e+00 0.0000000000000000e+00 0.0000000000000000e+00  1.0011932504338266e+00 0.0000000000000000e+00 0.0000000000000000e+00  9.9994079769910571e-01 0.0000000000000000e+00 0.0000000000000000e+00  9.9855495635289804e-01 0.0000000000000000e+00 0.0000000000000000e+00  9.9964824265748697e-01 0.0000000000000000e+00 0.0000000000000000e+00  9.9887810047129688e-01 0.0000000000000000e+00 0.0000000000000000e+00  9.9666280049248113e-01 0.0000000000000000e+00 0.0000000000000000e+00  9.9557169230199416e-01 0.0000000000000000e+00 0.0000000000000000e+00  9.9618752872644256e-01 0.0000000000000000e+00 0.0000000000000000e+00  9.9595542016236116e-01 0.0000000000000000e+00 0.0000000000000000e+00  9.9625274426702182e-01 0.0000000000000000e+00 0.0000000000000000e+00  9.9555675212162775e-01 0.0000000000000000e+00 0.0000000000000000e+00  9.9486830881597876e-01 0.0000000000000000e+00 0.0000000000000000e+00  9.9507579153611370e-01 0.0000000000000000e+00 0.0000000000000000e+00  9.9530899446028964e-01 0.0000000000000000e+00 0.0000000000000000e+00  9.9516841831881930e-01 0.0000000000000000e+00 0.0000000000000000e+00  9.9511258706183092e-01 0.0000000000000000e+00 0.0000000000000000e+00  9.9536790627498417e-01 0.0000000000000000e+00 0.0000000000000000e+00  9.9566788075245183e-01 0.0000000000000000e+00 0.0000000000000000e+00  9.9552293962688998e-01 0.0000000000000000e+00 0.0000000000000000e+00  9.9588233367695866e-01 0.0000000000000000e+00 0.0000000000000000e+00  9.9600661774877541e-01 0.0000000000000000e+00 0.0000000000000000e+00  9.9582246064303304e-01 0.0000000000000000e+00 0.0000000000000000e+00  9.9610484649655628e-01 0.0000000000000000e+00 0.0000000000000000e+00  9.9626294281628491e-01 0.0000000000000000e+00 0.0000000000000000e+00  9.9691216214200074e-01 0.0000000000000000e+00 0.0000000000000000e+00  9.9660555323974886e-01 0.0000000000000000e+00 0.0000000000000000e+00  9.9681811216927829e-01 0.0000000000000000e+00 0.0000000000000000e+00  9.9671524268073475e-01 0.0000000000000000e+00 0.0000000000000000e+00  9.9726901523563016e-01 0.0000000000000000e+00 0.0000000000000000e+00  9.9717772945990291e-01 0.0000000000000000e+00 0.0000000000000000e+00  9.9766954788920392e-01 0.0000000000000000e+00 0.0000000000000000e+00  9.9728346789583777e-01 0.0000000000000000e+00 0.0000000000000000e+00  9.9813726037156103e-01 -5.2390485643563827e-05 0.0000000000000000e+00  9.9885956102332063e-01 -2.0403881475594205e-04 0.0000000000000000e+00  1.0002102216017772e+00 -2.5873184678228145e-04 0.0000000000000000e+00  1.0003641231350886e+00 -2.1241763235407989e-04 0.0000000000000000e+00  1.0011268256886867e+00 -2.5877398273403126e-04 0.0000000000000000e+00  1.0008405472864579e+00 -2.0027956103685230e-04 0.0000000000000000e+00  1.0005897668238721e+00 -1.4818679763639586e-04 0.0000000000000000e+00  1.0008357084172586e+00 -1.0931525563578285e-04 0.0000000000000000e+00  1.0005828058664539e+00 -1.0613502273959048e-04 0.0000000000000000e+00  1.0006481303355943e+00 6.5420288499726787e-05 0.0000000000000000e+00  1.0019163425526088e+00 -5.3501656545180509e-04 0.0000000000000000e+00  1.0022019280653109e+00 -3.5791738709904278e-04 0.0000000000000000e+00  1.0008384656204705e+00 -5.3701193372145183e-04 0.0000000000000000e+00  9.9972823889548434e-01 -4.0288876960210503e-04 0.0000000000000000e+00  1.0005515337509405e+00 1.8359736137983323e-04 0.0000000000000000e+00  1.0013434326435442e+00 5.1938078774919482e-04 0.0000000000000000e+00  1.0003958289322468e+00 3.4247211600009683e-06 0.0000000000000000e+00  9.9994342849770779e-01 1.1190229764049588e-04 0.0000000000000000e+00  9.9924742506172903e-01 2.4666583826540145e-04 0.0000000000000000e+00  9.9947819616665112e-01 2.3215610775575692e-04 0.0000000000000000e+00  9.9888612620337469e-01 2.3520409314973538e-04 0.0000000000000000e+00  9.9892626221710257e-01 1.6554552672522899e-04 0.0000000000000000e+00  9.9835947175400364e-01 2.7776442430870124e-05 0.0000000000000000e+00  9.9753303877135369e-01 0.0000000000000000e+00 0.0000000000000000e+00  9.9738651952353352e-01 0.0000000000000000e+00 0.0000000000000000e+00  9.9722867046427233e-01 0.0000000000000000e+00 0.0000000000000000e+00  9.9738218184201022e-01 0.0000000000000000e+00 0.0000000000000000e+00  9.9689888658730885e-01 0.0000000000000000e+00 0.0000000000000000e+00  9.9690089583123420e-01 0.0000000000000000e+00 0.0000000000000000e+00  9.9709218802388844e-01 0.0000000000000000e+00 0.0000000000000000e+00  9.9738139157177752e-01 0.0000000000000000e+00 0.0000000000000000e+00  9.9699352119135987e-01 0.0000000000000000e+00 0.0000000000000000e+00  9.9691744895409684e-01 0.0000000000000000e+00 0.0000000000000000e+00  9.9671243204337112e-01 0.0000000000000000e+00 0.0000000000000000e+00  9.9637883795582416e-01 0.0000000000000000e+00 0.0000000000000000e+00  9.9610493179925941e-01 0.0000000000000000e+00 0.0000000000000000e+00  9.9650983177756347e-01 0.0000000000000000e+00 0.0000000000000000e+00  9.9614245850030814e-01 0.0000000000000000e+00 0.0000000000000000e+00  9.9673581355486884e-01 0.0000000000000000e+00 0.0000000000000000e+00  9.9606078111764862e-01 0.0000000000000000e+00 0.0000000000000000e+00  9.9595311430217981e-01 0.0000000000000000e+00 0.0000000000000000e+00  9.9562474596734651e-01 0.0000000000000000e+00 0.0000000000000000e+00  9.9593146263925414e-01 0.0000000000000000e+00 0.0000000000000000e+00  9.9603447680149948e-01 0.0000000000000000e+00 0.0000000000000000e+00  9.9580398508072798e-01 0.0000000000000000e+00 0.0000000000000000e+00  9.9617213892745771e-01 0.0000000000000000e+00 0.0000000000000000e+00  9.9596015177962705e-01 0.0000000000000000e+00 0.0000000000000000e+00  9.9635160533163736e-01 0.0000000000000000e+00 0.0000000000000000e+00  9.9575919211617014e-01 0.0000000000000000e+00 0.0000000000000000e+00  9.9678212289152957e-01 0.0000000000000000e+00 0.0000000000000000e+00  9.9866679271542791e-01 0.0000000000000000e+00 0.0000000000000000e+00  9.9947386957647577e-01 0.0000000000000000e+00 0.0000000000000000e+00  9.9851527658969197e-01 0.0000000000000000e+00 0.0000000000000000e+00  9.9977533747104008e-01 0.0000000000000000e+00 0.0000000000000000e+00  1.0010011767525420e+00 0.0000000000000000e+00 0.0000000000000000e+00  1.0014790955382611e+00 0.0000000000000000e+00 0.0000000000000000e+00  1.0026360703717305e+00 0.0000000000000000e+00 0.0000000000000000e+00  1.0038764171554302e+00 0.0000000000000000e+00 0.0000000000000000e+00  1.0044877421388587e+00 0.0000000000000000e+00 0.0000000000000000e+00  1.0059428227929856e+00 0.0000000000000000e+00 0.0000000000000000e+00  1.0073879378325623e+00 0.0000000000000000e+00 0.0000000000000000e+00  1.0080804922912765e+00 0.0000000000000000e+00 0.0000000000000000e+00  1.0101274034232397e+00 0.0000000000000000e+00 0.0000000000000000e+00  1.0122386230195182e+00 0.0000000000000000e+00 0.0000000000000000e+00  1.0136101873057535e+00 0.0000000000000000e+00 0.0000000000000000e+00  1.0160879304850761e+00 0.0000000000000000e+00 0.0000000000000000e+00  1.0186148014452878e+00 0.0000000000000000e+00 0.0000000000000000e+00  1.0202571311240847e+00 0.0000000000000000e+00 0.0000000000000000e+00  1.0236723480993464e+00 0.0000000000000000e+00 0.0000000000000000e+00  1.0272116678403622e+00 0.0000000000000000e+00 0.0000000000000000e+00  1.0303958712651731e+00 0.0000000000000000e+00 0.0000000000000000e+00  1.0344558037808251e+00 0.0000000000000000e+00 0.0000000000000000e+00  1.0389669007139970e+00 0.0000000000000000e+00 0.0000000000000000e+00  1.0437986298663915e+00 0.0000000000000000e+00 0.0000000000000000e+00  1.0494849525183083e+00 0.0000000000000000e+00 0.0000000000000000e+00  1.0558036013872383e+00 0.0000000000000000e+00 0.0000000000000000e+00  1.0624928667568454e+00 0.0000000000000000e+00 0.0000000000000000e+00  1.0706753806540303e+00 0.0000000000000000e+00 0.0000000000000000e+00  1.0780920977782495e+00 0.0000000000000000e+00 0.0000000000000000e+00  1.0865695951042744e+00 0.0000000000000000e+00 0.0000000000000000e+00  1.0959414648420589e+00 0.0000000000000000e+00 0.0000000000000000e+00  1.1054244364133137e+00 0.0000000000000000e+00 0.0000000000000000e+00  1.1140314941016827e+00 0.0000000000000000e+00 0.0000000000000000e+00  1.1218929751788880e+00 0.0000000000000000e+00 0.0000000000000000e+00  1.1291799730765386e+00 0.0000000000000000e+00 0.0000000000000000e+00  1.1361268451818773e+00 0.0000000000000000e+00 0.0000000000000000e+00  1.1410311579583423e+00 0.0000000000000000e+00 0.0000000000000000e+00  1.1436048088107489e+00 0.0000000000000000e+00 0.0000000000000000e+00  1.1456275065621302e+00 0.0000000000000000e+00 0.0000000000000000e+00  1.1437648990645053e+00 0.0000000000000000e+00 0.0000000000000000e+00  1.1404812858059834e+00 0.0000000000000000e+00 0.0000000000000000e+00  1.1346066414869604e+00 0.0000000000000000e+00 0.0000000000000000e+00  1.1261990685528263e+00 0.0000000000000000e+00 0.0000000000000000e+00  1.1162718097083462e+00 0.0000000000000000e+00 0.0000000000000000e+00  1.1054307341603300e+00 0.0000000000000000e+00 0.0000000000000000e+00  1.0940291406448579e+00 0.0000000000000000e+00 0.0000000000000000e+00  1.0815838268593565e+00 0.0000000000000000e+00 0.0000000000000000e+00  1.0705820165349920e+00 0.0000000000000000e+00 0.0000000000000000e+00  1.0594303413699517e+00 0.0000000000000000e+00 0.0000000000000000e+00  1.0395682512271132e+00 0.0000000000000000e+00 0.0000000000000000e+00  1.0313970326827573e+00 0.0000000000000000e+00 0.0000000000000000e+00  1.0250398887590451e+00 0.0000000000000000e+00 0.0000000000000000e+00  1.0193376714747111e+00 0.0000000000000000e+00 0.0000000000000000e+00  1.0148239516594229e+00 0.0000000000000000e+00 0.0000000000000000e+00  1.0112613670892234e+00 0.0000000000000000e+00 0.0000000000000000e+00  1.0085224752965214e+00 0.0000000000000000e+00 0.0000000000000000e+00  1.0059884918536728e+00 0.0000000000000000e+00 0.0000000000000000e+00  1.0042181328732489e+00 0.0000000000000000e+00 0.0000000000000000e+00  1.0029942789881428e+00 0.0000000000000000e+00 0.0000000000000000e+00  1.0016502102505997e+00 0.0000000000000000e+00 0.0000000000000000e+00  1.0014038473075297e+00 0.0000000000000000e+00 0.0000000000000000e+00  1.0002949915223951e+00 0.0000000000000000e+00 0.0000000000000000e+00  1.0002397686761451e+00 0.0000000000000000e+00 0.0000000000000000e+00  9.9981434657028267e-01 0.0000000000000000e+00 0.0000000000000000e+00  1.0005060387909837e+00 0.0000000000000000e+00 0.0000000000000000e+00  1.0002546017308847e+00 0.0000000000000000e+00 0.0000000000000000e+00  9.9979604954219170e-01 0.0000000000000000e+00 0.0000000000000000e+00  1.0000001338336650e+00 0.0000000000000000e+00 0.0000000000000000e+00  1.0000001338336650e+00 0.0000000000000000e+00 0.0000000000000000e+00  1.0000001338336650e+00 0.0000000000000000e+00 0.0000000000000000e+00  1.0000001338336650e+00 0.0000000000000000e+00 0.0000000000000000e+00  1.0000001338336650e+00 0.0000000000000000e+00 0.0000000000000000e+00  1.0000001338336650e+00 0.0000000000000000e+00 0.0000000000000000e+00  1.0000001338336650e+00 0.0000000000000000e+00 0.0000000000000000e+00  1.0000001338336650e+00 0.0000000000000000e+00 0.0000000000000000e+00  1.0000001338336650e+00 0.0000000000000000e+00 0.0000000000000000e+00  1.0000001338336650e+00 0.0000000000000000e+00 0.0000000000000000e+00  1.0000001338336650e+00 0.0000000000000000e+00 0.0000000000000000e+00  1.0000001338336650e+00 0.0000000000000000e+00 0.0000000000000000e+00  1.0000001338336650e+00 0.0000000000000000e+00 0.0000000000000000e+00  1.0000001338336650e+00 0.0000000000000000e+00 0.0000000000000000e+00  1.0000001338336650e+00 0.0000000000000000e+00 0.0000000000000000e+00  1.0000001338336650e+00 0.0000000000000000e+00 0.0000000000000000e+00  1.0000001338336650e+00 0.0000000000000000e+00 0.0000000000000000e+00  1.0000001338336650e+00 0.0000000000000000e+00 0.0000000000000000e+00  1.0000001338336650e+00 0.0000000000000000e+00 0.0000000000000000e+00  1.0000001338336650e+00 0.0000000000000000e+00 0.0000000000000000e+00  1.0489725771181195e+00 -1.1932856668025304e-02 0.0000000000000000e+00  1.0450208384647397e+00 -2.3878791449378149e-02 0.0000000000000000e+00  1.0411827513142564e+00 -3.6153959504170191e-02 0.0000000000000000e+00  1.0333359314937476e+00 -4.8656428815032265e-02 0.0000000000000000e+00  1.0250162459083247e+00 -6.5322398474456006e-02 0.0000000000000000e+00  1.0296801135509297e+00 -6.9565639779622560e-02 0.0000000000000000e+00  1.0339242811651730e+00 -7.3952546836058425e-02 0.0000000000000000e+00  1.0392500353552598e+00 -7.8106026716900645e-02 0.0000000000000000e+00  1.0448745078557404e+00 -8.2184016022815429e-02 0.0000000000000000e+00  1.0511692940935256e+00 -8.5937881516096035e-02 0.0000000000000000e+00  1.0580934532723312e+00 -8.9415227332727415e-02 0.0000000000000000e+00  1.0655420721497151e+00 -9.2311082746371897e-02 0.0000000000000000e+00  1.0735488615238382e+00 -9.4774001906766908e-02 0.0000000000000000e+00  1.0817830879094981e+00 -9.6444406788748244e-02 0.0000000000000000e+00  1.0904265054311788e+00 -9.7558863005151472e-02 0.0000000000000000e+00  1.0992444275342728e+00 -9.7966917679224830e-02 0.0000000000000000e+00  1.1082325476226120e+00 -9.7422132917164353e-02 0.0000000000000000e+00  1.1169949761844131e+00 -9.6051734376810541e-02 0.0000000000000000e+00  1.1256379794273699e+00 -9.4022760301784442e-02 0.0000000000000000e+00  1.1340064229861349e+00 -9.1256318425345276e-02 0.0000000000000000e+00  1.1418887680685468e+00 -8.7764029184727019e-02 0.0000000000000000e+00  1.1493550094806335e+00 -8.3720078862087377e-02 0.0000000000000000e+00  1.1562396661751866e+00 -7.9192338591271505e-02 0.0000000000000000e+00  1.1626185590373601e+00 -7.4121457170401597e-02 0.0000000000000000e+00  1.1684186134405223e+00 -6.8872386147766362e-02 0.0000000000000000e+00  1.1736668361559832e+00 -6.3250162388925099e-02 0.0000000000000000e+00  1.1782211514556680e+00 -5.7351893798506477e-02 0.0000000000000000e+00  1.1823480384325098e+00 -5.1353428841405396e-02 0.0000000000000000e+00  1.1857928526416404e+00 -4.5267450149441821e-02 0.0000000000000000e+00  1.1887359688304233e+00 -3.9084771830815275e-02 0.0000000000000000e+00  1.1911038843305122e+00 -3.2865424388690723e-02 0.0000000000000000e+00  1.1929202120540108e+00 -2.6699176059100882e-02 0.0000000000000000e+00  1.1942668383942940e+00 -2.0459977251076084e-02 0.0000000000000000e+00  1.1950695506505127e+00 -1.4222702555138717e-02 0.0000000000000000e+00  1.1953967708425255e+00 -8.0719755216710730e-03 0.0000000000000000e+00  1.1952378704655262e+00 -2.00550