<?xml version="1.0"?>
<VTKFile type="UnstructuredGrid"  version="0.1"  >
<UnstructuredGrid>
<Piece  NumberOfPoints="10199" NumberOfCells="20110">
<Points>
<DataArray  type="Float64"  NumberOfComponents="3"  format="ascii">0 -5 0  8 -5 0  30 -5 0  40 -5 0  40 5 0  30 5 0  8 5 0  0 5 0  8 -2.5 0  15 -2.5 0  30 -2.5 0  30 2.5 0  15 2.5 0  8 2.5 0  10 0.5 0  10 -0.5 0  0 0 0  0.4210526315780956 -5 0  0.8421052631563433 -5 0  1.263157894734281 -5 0  1.684210526311999 -5 0  2.105263157889717 -5 0  2.526315789467435 -5 0  2.947368421045153 -5 0  3.368421052622872 -5 0  3.78947368420059 -5 0  4.210526315779479 -5 0  4.631578947359537 -5 0  5.052631578939595 -5 0  5.473684210519653 -5 0  5.89473684209971 -5 0  6.315789473679768 -5 0  6.736842105259826 -5 0  7.157894736839884 -5 0  7.578947368419942 -5 0  8.407407407405314 -5 0  8.814814814810628 -5 0  9.222222222215942 -5 0  9.629629629621256 -5 0  10.03703703702657 -5 0  10.44444444443188 -5 0  10.8518518518372 -5 0  11.25925925924251 -5 0  11.66666666664783 -5 0  12.07407407405314 -5 0  12.48148148145846 -5 0  12.88888888886377 -5 0  13.29629629626908 -5 0  13.7037037036744 -5 0  14.11111111107971 -5 0  14.51851851848502 -5 0  14.92592592589034 -5 0  15.33333333329565 -5 0  15.74074074070096 -5 0  16.14814814810754 -5 0  16.55555555551614 -5 0  16.96296296292474 -5 0  17.37037037033335 -5 0  17.77777777774195 -5 0  18.18518518515056 -5 0  18.59259259255916 -5 0  18.99999999996776 -5 0  19.40740740737636 -5 0  19.81481481478497 -5 0  20.22222222219357 -5 0  20.62962962960217 -5 0  21.03703703701077 -5 0  21.44444444441937 -5 0  21.85185185182797 -5 0  22.25925925923657 -5 0  22.66666666664518 -5 0  23.07407407405378 -5 0  23.48148148146238 -5 0  23.88888888887098 -5 0  24.29629629627958 -5 0  24.70370370368818 -5 0  25.11111111109678 -5 0  25.51851851850539 -5 0  25.92592592591399 -5 0  26.33333333332259 -5 0  26.74074074073119 -5 0  27.14814814813979 -5 0  27.55555555554839 -5 0  27.96296296295699 -5 0  28.3703703703656 -5 0  28.7777777777742 -5 0  29.1851851851828 -5 0  29.5925925925914 -5 0  30.41666666667852 -5 0  30.83333333335704 -5 0  31.25000000003556 -5 0  31.66666666671408 -5 0  32.08333333338936 -5 0  32.50000000005308 -5 0  32.9166666667168 -5 0  33.33333333338052 -5 0  33.75000000004424 -5 0  34.16666666670795 -5 0  34.58333333337167 -5 0  35.00000000003539 -5 0  35.41666666669911 -5 0  35.83333333336282 -5 0  36.25000000002654 -5 0  36.66666666669026 -5 0  37.08333333335398 -5 0  37.50000000001769 -5 0  37.91666666668141 -5 0  38.33333333334513 -5 0  38.75000000000885 -5 0  39.16666666667257 -5 0  39.58333333333628 -5 0  40 -4.583333333332821 0  40 -4.166666666665642 0  40 -3.74999999999855 0  40 -3.333333333333135 0  40 -2.916666666667806 0  40 -2.500000000002478 0  40 -2.083333333337148 0  40 -1.666666666671818 0  40 -1.250000000006488 0  40 -0.8333333333405228 0  40 -0.4166666666733416 0  40 -6.163070054299169e-12 0  40 0.4166666666610173 0  40 0.8333333333281976 0  40 1.249999999995378 0  40 1.666666666662558 0  40 2.083333333329739 0  40 2.499999999996919 0  40 2.916666666664099 0  40 3.33333333333128 0  40 3.74999999999846 0  40 4.166666666665641 0  40 4.583333333332821 0  39.58333333333628 5 0  39.16666666667256 5 0  38.75000000000885 5 0  38.33333333334513 5 0  37.91666666668141 5 0  37.50000000001769 5 0  37.08333333335398 5 0  36.66666666669025 5 0  36.25000000002654 5 0  35.83333333336282 5 0  35.41666666669911 5 0  35.00000000003539 5 0  34.58333333337167 5 0  34.16666666670795 5 0  33.75000000004424 5 0  33.33333333338052 5 0  32.9166666667168 5 0  32.50000000005308 5 0  32.08333333338936 5 0  31.66666666671408 5 0  31.25000000003556 5 0  30.83333333335704 5 0  30.41666666667852 5 0  29.59259259259259 5 0  29.18518518518519 5 0  28.77777777777778 5 0  28.37037037037037 5 0  27.96296296296296 5 0  27.55555555555556 5 0  27.14814814814815 5 0  26.74074074074074 5 0  26.33333333333333 5 0  25.92592592592593 5 0  25.51851851851852 5 0  25.11111111111111 5 0  24.7037037037037 5 0  24.2962962962963 5 0  23.88888888888889 5 0  23.48148148148148 5 0  23.07407407407408 5 0  22.66666666666667 5 0  22.25925925925926 5 0  21.85185185185185 5 0  21.44444444444445 5 0  21.03703703703704 5 0  20.62962962962963 5 0  20.22222222222222 5 0  19.81481481481482 5 0  19.40740740740741 5 0  19 5 0  18.5925925925926 5 0  18.18518518518519 5 0  17.77777777777778 5 0  17.37037037037037 5 0  16.96296296296296 5 0  16.55555555555556 5 0  16.14814814814815 5 0  15.74074074074074 5 0  15.33333333333333 5 0  14.92592592592593 5 0  14.51851851851852 5 0  14.11111111111111 5 0  13.70370370370371 5 0  13.2962962962963 5 0  12.88888888888889 5 0  12.48148148148148 5 0  12.07407407407408 5 0  11.66666666666667 5 0  11.25925925925926 5 0  10.85185185185185 5 0  10.44444444444445 5 0  10.03703703703704 5 0  9.629629629629633 5 0  9.222222222222221 5 0  8.814814814814817 5 0  8.407407407407408 5 0  7.5789473684193 5 0  7.157894736838599 5 0  6.73684210526082 5 0  6.315789473684795 5 0  5.894736842108769 5 0  5.473684210532742 5 0  5.052631578956715 5 0  4.631578947380689 5 0  4.210526315804662 5 0  3.789473684226299 5 0  3.368421052645599 5 0  2.947368421064898 5 0  2.526315789484198 5 0  2.105263157903499 5 0  1.6842105263228 5 0  1.2631578947421 5 0  0.8421052631613994 5 0  0.4210526315806993 5 0  0 4.545454545454545 0  0 4.09090909090909 0  0 3.636363636363634 0  0 3.18181818181818 0  0 2.727272727272726 0  0 2.272727272727271 0  0 1.818181818181817 0  0 1.363636363636363 0  0 0.9090909090909092 0  0 0.454545454545455 0  0 -0.4545454545450807 0  0 -0.9090909090895867 0  0 -1.363636363633713 0  0 -1.818181818177841 0  0 -2.272727272723127 0  0 -2.727272727269273 0  0 -3.181818181815419 0  0 -3.636363636361564 0  0 -4.090909090907709 0  0 -4.545454545453855 0  8 -4.499999999999999 0  8 -3.999999999999999 0  8 -3.499999999999999 0  8 -3 0  8.137254901963859 -2.5 0  8.274509803926303 -2.5 0  8.411764705886863 -2.5 0  8.549019607849138 -2.5 0  8.686274509809513 -2.5 0  8.82352941176989 -2.5 0  8.960784313730265 -2.5 0  9.098039215690642 -2.5 0  9.235294117651017 -2.5 0  9.372549019611395 -2.5 0  9.50980392157177 -2.5 0  9.647058823532147 -2.5 0  9.784313725492522 -2.5 0  9.921568627452897 -2.5 0  10.05882352941327 -2.5 0  10.19607843137365 -2.5 0  10.33333333333402 -2.5 0  10.4705882352944 -2.5 0  10.60784313725478 -2.5 0  10.74509803921515 -2.5 0  10.88235294117553 -2.5 0  11.0196078431359 -2.5 0  11.15686274509628 -2.5 0  11.29411764705665 -2.5 0  11.43137254901703 -2.5 0  11.56862745097915 -2.5 0  11.70588235294301 -2.5 0  11.84313725490686 -2.5 0  11.98039215687072 -2.5 0  12.11764705883209 -2.5 0  12.25490196079247 -2.5 0  12.39215686275285 -2.5 0  12.52941176471322 -2.5 0  12.6666666666736 -2.5 0  12.80392156863397 -2.5 0  12.94117647059435 -2.5 0  13.07843137255473 -2.5 0  13.2156862745151 -2.5 0  13.35294117647548 -2.5 0  13.49019607843586 -2.5 0  13.62745098039623 -2.5 0  13.76470588235661 -2.5 0  13.90196078431699 -2.5 0  14.03921568627736 -2.5 0  14.17647058823774 -2.5 0  14.31372549019812 -2.5 0  14.45098039215849 -2.5 0  14.58823529411887 -2.5 0  14.72549019607925 -2.5 0  14.86274509803962 -2.5 0  15.20270270270254 -2.5 0  15.40540540540509 -2.5 0  15.60810810810763 -2.5 0  15.81081081081017 -2.5 0  16.01351351351227 -2.5 0  16.21621621621265 -2.5 0  16.41891891891279 -2.5 0  16.62162162161294 -2.5 0  16.82432432431308 -2.5 0  17.02702702701322 -2.5 0  17.22972972971337 -2.5 0  17.43243243241351 -2.5 0  17.63513513511365 -2.5 0  17.83783783781379 -2.5 0  18.04054054051394 -2.5 0  18.24324324321408 -2.5 0  18.44594594591422 -2.5 0  18.64864864861436 -2.5 0  18.85135135131451 -2.5 0  19.05405405401465 -2.5 0  19.25675675671479 -2.5 0  19.45945945941494 -2.5 0  19.66216216211508 -2.5 0  19.86486486481522 -2.5 0  20.06756756751536 -2.5 0  20.27027027021551 -2.5 0  20.47297297291565 -2.5 0  20.6756756756158 -2.5 0  20.87837837831594 -2.5 0  21.08108108101608 -2.5 0  21.28378378371622 -2.5 0  21.48648648641637 -2.5 0  21.68918918911651 -2.5 0  21.89189189181666 -2.5 0  22.0945945945168 -2.5 0  22.29729729721694 -2.5 0  22.49999999991778 -2.5 0  22.70270270262203 -2.5 0  22.90540540532697 -2.5 0  23.10810810803191 -2.5 0  23.31081081073686 -2.5 0  23.5135135134418 -2.5 0  23.71621621614674 -2.5 0  23.91891891885169 -2.5 0  24.12162162155663 -2.5 0  24.32432432426158 -2.5 0  24.52702702696652 -2.5 0  24.72972972967146 -2.5 0  24.93243243237641 -2.5 0  25.13513513508135 -2.5 0  25.3378378377863 -2.5 0  25.54054054049124 -2.5 0  25.74324324319618 -2.5 0  25.94594594590112 -2.5 0  26.14864864860607 -2.5 0  26.35135135131101 -2.5 0  26.55405405401596 -2.5 0  26.7567567567209 -2.5 0  26.95945945942584 -2.5 0  27.16216216213079 -2.5 0  27.36486486483573 -2.5 0  27.56756756754068 -2.5 0  27.77027027024562 -2.5 0  27.97297297295056 -2.5 0  28.1756756756555 -2.5 0  28.37837837836045 -2.5 0  28.5810810810654 -2.5 0  28.78378378377034 -2.5 0  28.98648648647528 -2.5 0  29.18918918918023 -2.5 0  29.39189189188517 -2.5 0  29.59459459459011 -2.5 0  29.79729729729506 -2.5 0  30 -3.000000000000001 0  30 -3.500000000000001 0  30 -4.000000000000001 0  30 -4.5 0  8 4.499999999999999 0  8 3.999999999999999 0  8 3.499999999999999 0  8 3 0  8.137254901963859 2.5 0  8.274509803926303 2.5 0  8.411764705886863 2.5 0  8.549019607849138 2.5 0  8.686274509809513 2.5 0  8.82352941176989 2.5 0  8.960784313730265 2.5 0  9.098039215690642 2.5 0  9.235294117651017 2.5 0  9.372549019611395 2.5 0  9.50980392157177 2.5 0  9.647058823532147 2.5 0  9.784313725492522 2.5 0  9.921568627452897 2.5 0  10.05882352941327 2.5 0  10.19607843137365 2.5 0  10.33333333333402 2.5 0  10.4705882352944 2.5 0  10.60784313725478 2.5 0  10.74509803921515 2.5 0  10.88235294117553 2.5 0  11.0196078431359 2.5 0  11.15686274509628 2.5 0  11.29411764705665 2.5 0  11.43137254901703 2.5 0  11.56862745097915 2.5 0  11.70588235294301 2.5 0  11.84313725490686 2.5 0  11.98039215687072 2.5 0  12.11764705883209 2.5 0  12.25490196079247 2.5 0  1
[...]
<PointData  Vectors="f_17"> 
<DataArray  type="Float64"  Name="f_17"  NumberOfComponents="3" format="ascii">1.0000001325673797e+00 0.0000000000000000e+00 0.0000000000000000e+00  1.0389837879718291e+00 0.0000000000000000e+00 0.0000000000000000e+00  1.0562809191456135e+00 0.0000000000000000e+00 0.0000000000000000e+00  1.0805077106503531e+00 0.0000000000000000e+00 0.0000000000000000e+00  1.0853447066090667e+00 0.0000000000000000e+00 0.0000000000000000e+00  1.0580309739002010e+00 0.0000000000000000e+00 0.0000000000000000e+00  1.0419388662003932e+00 0.0000000000000000e+00 0.0000000000000000e+00  1.0000001325673797e+00 0.0000000000000000e+00 0.0000000000000000e+00  1.0175790132351179e+00 -4.9755466141386095e-02 0.0000000000000000e+00  9.9059356528775355e-01 4.2930037578375733e-02 0.0000000000000000e+00  1.0353567647335746e+00 7.7574387722887148e-02 0.0000000000000000e+00  1.1031819412639650e+00 8.8052320277411139e-02 0.0000000000000000e+00  1.1394654784630600e+00 -8.9960235292824466e-03 0.0000000000000000e+00  1.0252038081231518e+00 5.1911284015220875e-02 0.0000000000000000e+00  0.0000000000000000e+00 0.0000000000000000e+00 0.0000000000000000e+00  0.0000000000000000e+00 0.0000000000000000e+00 0.0000000000000000e+00  1.0000001325673797e+00 0.0000000000000000e+00 0.0000000000000000e+00  9.9929165195422143e-01 0.0000000000000000e+00 0.0000000000000000e+00  9.9870031644123058e-01 0.0000000000000000e+00 0.0000000000000000e+00  1.0006894782121325e+00 0.0000000000000000e+00 0.0000000000000000e+00  1.0003924112022857e+00 0.0000000000000000e+00 0.0000000000000000e+00  1.0012059272830320e+00 0.0000000000000000e+00 0.0000000000000000e+00  1.0013306511825935e+00 0.0000000000000000e+00 0.0000000000000000e+00  1.0014184233822125e+00 0.0000000000000000e+00 0.0000000000000000e+00  1.0020377764416812e+00 0.0000000000000000e+00 0.0000000000000000e+00  1.0030505209077720e+00 0.0000000000000000e+00 0.0000000000000000e+00  1.0040099735108319e+00 0.0000000000000000e+00 0.0000000000000000e+00  1.0053054159643560e+00 0.0000000000000000e+00 0.0000000000000000e+00  1.0074089924099263e+00 0.0000000000000000e+00 0.0000000000000000e+00  1.0096059003583540e+00 0.0000000000000000e+00 0.0000000000000000e+00  1.0133712152694963e+00 0.0000000000000000e+00 0.0000000000000000e+00  1.0149308223875622e+00 0.0000000000000000e+00 0.0000000000000000e+00  1.0192870002717613e+00 0.0000000000000000e+00 0.0000000000000000e+00  1.0258381003576738e+00 0.0000000000000000e+00 0.0000000000000000e+00  1.0311094076569183e+00 0.0000000000000000e+00 0.0000000000000000e+00  1.0470430975209990e+00 0.0000000000000000e+00 0.0000000000000000e+00  1.0557072527848039e+00 0.0000000000000000e+00 0.0000000000000000e+00  1.0640161114537932e+00 0.0000000000000000e+00 0.0000000000000000e+00  1.0730065751560698e+00 0.0000000000000000e+00 0.0000000000000000e+00  1.0806428539468382e+00 0.0000000000000000e+00 0.0000000000000000e+00  1.0876252149492154e+00 0.0000000000000000e+00 0.0000000000000000e+00  1.0939998729125129e+00 0.0000000000000000e+00 0.0000000000000000e+00  1.0973663336109554e+00 0.0000000000000000e+00 0.0000000000000000e+00  1.0992413026109473e+00 0.0000000000000000e+00 0.0000000000000000e+00  1.0985638126463415e+00 0.0000000000000000e+00 0.0000000000000000e+00  1.0959930141874272e+00 0.0000000000000000e+00 0.0000000000000000e+00  1.0903254174173642e+00 0.0000000000000000e+00 0.0000000000000000e+00  1.0841465669565793e+00 0.0000000000000000e+00 0.0000000000000000e+00  1.0767940353669581e+00 0.0000000000000000e+00 0.0000000000000000e+00  1.0692930489389805e+00 0.0000000000000000e+00 0.0000000000000000e+00  1.0629794657583309e+00 0.0000000000000000e+00 0.0000000000000000e+00  1.0581130357203357e+00 0.0000000000000000e+00 0.0000000000000000e+00  1.0554612642824117e+00 0.0000000000000000e+00 0.0000000000000000e+00  1.0547091871765844e+00 0.0000000000000000e+00 0.0000000000000000e+00  1.0555948866101890e+00 0.0000000000000000e+00 0.0000000000000000e+00  1.0588290380835086e+00 0.0000000000000000e+00 0.0000000000000000e+00  1.0625896974714704e+00 0.0000000000000000e+00 0.0000000000000000e+00  1.0643102685928891e+00 0.0000000000000000e+00 0.0000000000000000e+00  1.0650769502464912e+00 0.0000000000000000e+00 0.0000000000000000e+00  1.0635331376789499e+00 0.0000000000000000e+00 0.0000000000000000e+00  1.0598139600517651e+00 0.0000000000000000e+00 0.0000000000000000e+00  1.0550727765772026e+00 0.0000000000000000e+00 0.0000000000000000e+00  1.0493505227326461e+00 0.0000000000000000e+00 0.0000000000000000e+00  1.0442917810336612e+00 0.0000000000000000e+00 0.0000000000000000e+00  1.0410494442109932e+00 0.0000000000000000e+00 0.0000000000000000e+00  1.0392796532574058e+00 0.0000000000000000e+00 0.0000000000000000e+00  1.0397700621673287e+00 0.0000000000000000e+00 0.0000000000000000e+00  1.0440757935930656e+00 0.0000000000000000e+00 0.0000000000000000e+00  1.0488278827025783e+00 0.0000000000000000e+00 0.0000000000000000e+00  1.0538841827537762e+00 0.0000000000000000e+00 0.0000000000000000e+00  1.0593510784789746e+00 0.0000000000000000e+00 0.0000000000000000e+00  1.0622621219133077e+00 0.0000000000000000e+00 0.0000000000000000e+00  1.0627165855647198e+00 0.0000000000000000e+00 0.0000000000000000e+00  1.0622193023152739e+00 0.0000000000000000e+00 0.0000000000000000e+00  1.0590076629815695e+00 0.0000000000000000e+00 0.0000000000000000e+00  1.0546618097148275e+00 0.0000000000000000e+00 0.0000000000000000e+00  1.0512027559440555e+00 0.0000000000000000e+00 0.0000000000000000e+00  1.0481004233934033e+00 0.0000000000000000e+00 0.0000000000000000e+00  1.0467697809584215e+00 0.0000000000000000e+00 0.0000000000000000e+00  1.0481463616991931e+00 0.0000000000000000e+00 0.0000000000000000e+00  1.0504615737039833e+00 0.0000000000000000e+00 0.0000000000000000e+00  1.0537240490704014e+00 0.0000000000000000e+00 0.0000000000000000e+00  1.0599578155069520e+00 0.0000000000000000e+00 0.0000000000000000e+00  1.0634698817858759e+00 0.0000000000000000e+00 0.0000000000000000e+00  1.0639462837710101e+00 0.0000000000000000e+00 0.0000000000000000e+00  1.0634965835239025e+00 0.0000000000000000e+00 0.0000000000000000e+00  1.0627396815371348e+00 0.0000000000000000e+00 0.0000000000000000e+00  1.0594968586612790e+00 0.0000000000000000e+00 0.0000000000000000e+00  1.0529815555437172e+00 0.0000000000000000e+00 0.0000000000000000e+00  1.0503053946938172e+00 0.0000000000000000e+00 0.0000000000000000e+00  1.0495058823054759e+00 0.0000000000000000e+00 0.0000000000000000e+00  1.0514344021379056e+00 0.0000000000000000e+00 0.0000000000000000e+00  1.0551382948853585e+00 0.0000000000000000e+00 0.0000000000000000e+00  1.0590361087759050e+00 0.0000000000000000e+00 0.0000000000000000e+00  1.0629581979759541e+00 0.0000000000000000e+00 0.0000000000000000e+00  1.0659441546396078e+00 0.0000000000000000e+00 0.0000000000000000e+00  1.0673957530196705e+00 0.0000000000000000e+00 0.0000000000000000e+00  1.0664300580498700e+00 0.0000000000000000e+00 0.0000000000000000e+00  1.0644385902537312e+00 0.0000000000000000e+00 0.0000000000000000e+00  1.0613403577351601e+00 0.0000000000000000e+00 0.0000000000000000e+00  1.0580824069569914e+00 0.0000000000000000e+00 0.0000000000000000e+00  1.0563555536517992e+00 0.0000000000000000e+00 0.0000000000000000e+00  1.0563033054229141e+00 0.0000000000000000e+00 0.0000000000000000e+00  1.0588480705819294e+00 0.0000000000000000e+00 0.0000000000000000e+00  1.0624203806818031e+00 0.0000000000000000e+00 0.0000000000000000e+00  1.0677408338418972e+00 0.0000000000000000e+00 0.0000000000000000e+00  1.0729799060270484e+00 0.0000000000000000e+00 0.0000000000000000e+00  1.0781436201946244e+00 0.0000000000000000e+00 0.0000000000000000e+00  1.0810486302265727e+00 0.0000000000000000e+00 0.0000000000000000e+00  1.0826586565659184e+00 0.0000000000000000e+00 0.0000000000000000e+00  1.0816647080201756e+00 0.0000000000000000e+00 0.0000000000000000e+00  1.0813057285828840e+00 2.0043184390703505e-03 0.0000000000000000e+00  1.0829060103216297e+00 4.9585835476448842e-03 0.0000000000000000e+00  1.0854076237690355e+00 1.0327271419608607e-02 0.0000000000000000e+00  1.0875297627898932e+00 2.0669415510427114e-02 0.0000000000000000e+00  1.0911489243436343e+00 3.9962146477764769e-02 0.0000000000000000e+00  1.0885637856817152e+00 7.0781000391568191e-02 0.0000000000000000e+00  1.0682923729061136e+00 1.1670374297230134e-01 0.0000000000000000e+00  1.0193413849883992e+00 1.6767694531870977e-01 0.0000000000000000e+00  9.4230269578432935e-01 2.1560259199217846e-01 0.0000000000000000e+00  8.5512064746426708e-01 2.4395666756423762e-01 0.0000000000000000e+00  7.8071952443164272e-01 2.6502558659392350e-01 0.0000000000000000e+00  7.3928899703788631e-01 2.8188395328682481e-01 0.0000000000000000e+00  7.4904992668537596e-01 2.9775207443180474e-01 0.0000000000000000e+00  8.0877101968750209e-01 3.0763567313426066e-01 0.0000000000000000e+00  9.0031526227728798e-01 2.9799149529457392e-01 0.0000000000000000e+00  9.9029587037279254e-01 2.5821556482845276e-01 0.0000000000000000e+00  1.0492927711750937e+00 1.9921898780550032e-01 0.0000000000000000e+00  1.0725210809872487e+00 1.3570031758480219e-01 0.0000000000000000e+00  1.0782033205579724e+00 8.7810163729680854e-02 0.0000000000000000e+00  1.0826719586900131e+00 5.4702734452519851e-02 0.0000000000000000e+00  1.0851902827249635e+00 3.4073402562920900e-02 0.0000000000000000e+00  1.0864226376198605e+00 1.9851940576415917e-02 0.0000000000000000e+00  1.0860066916372655e+00 8.9941452357174684e-03 0.0000000000000000e+00  1.0769246061312872e+00 0.0000000000000000e+00 0.0000000000000000e+00  1.0702448313375317e+00 0.0000000000000000e+00 0.0000000000000000e+00  1.0658524395979156e+00 0.0000000000000000e+00 0.0000000000000000e+00  1.0644946528348764e+00 0.0000000000000000e+00 0.0000000000000000e+00  1.0645779217621820e+00 0.0000000000000000e+00 0.0000000000000000e+00  1.0663569321375557e+00 0.0000000000000000e+00 0.0000000000000000e+00  1.0685846863531565e+00 0.0000000000000000e+00 0.0000000000000000e+00  1.0703254151566435e+00 0.0000000000000000e+00 0.0000000000000000e+00  1.0698839967590297e+00 0.0000000000000000e+00 0.0000000000000000e+00  1.0680951381480783e+00 0.0000000000000000e+00 0.0000000000000000e+00  1.0645380699492193e+00 0.0000000000000000e+00 0.0000000000000000e+00  1.0599629815495231e+00 0.0000000000000000e+00 0.0000000000000000e+00  1.0554144864208606e+00 0.0000000000000000e+00 0.0000000000000000e+00  1.0526104218358125e+00 0.0000000000000000e+00 0.0000000000000000e+00  1.0507032551722397e+00 0.0000000000000000e+00 0.0000000000000000e+00  1.0518381719645584e+00 0.0000000000000000e+00 0.0000000000000000e+00  1.0535459205989355e+00 0.0000000000000000e+00 0.0000000000000000e+00  1.0570083465072704e+00 0.0000000000000000e+00 0.0000000000000000e+00  1.0604301613100642e+00 0.0000000000000000e+00 0.0000000000000000e+00  1.0636959153892478e+00 0.0000000000000000e+00 0.0000000000000000e+00  1.0650511075197004e+00 0.0000000000000000e+00 0.0000000000000000e+00  1.0640409905529276e+00 0.0000000000000000e+00 0.0000000000000000e+00  1.0617984347254561e+00 0.0000000000000000e+00 0.0000000000000000e+00  1.0534466373410187e+00 0.0000000000000000e+00 0.0000000000000000e+00  1.0500444531698003e+00 0.0000000000000000e+00 0.0000000000000000e+00  1.0470937232566477e+00 0.0000000000000000e+00 0.0000000000000000e+00  1.0475000643537458e+00 0.0000000000000000e+00 0.0000000000000000e+00  1.0507169548305120e+00 0.0000000000000000e+00 0.0000000000000000e+00  1.0542098336694410e+00 0.0000000000000000e+00 0.0000000000000000e+00  1.0566121468529521e+00 0.0000000000000000e+00 0.0000000000000000e+00  1.0609261756422370e+00 0.0000000000000000e+00 0.0000000000000000e+00  1.0638083660728876e+00 0.0000000000000000e+00 0.0000000000000000e+00  1.0638914468809217e+00 0.0000000000000000e+00 0.0000000000000000e+00  1.0623209106697116e+00 0.0000000000000000e+00 0.0000000000000000e+00  1.0587852133144076e+00 0.0000000000000000e+00 0.0000000000000000e+00  1.0534052706215269e+00 0.0000000000000000e+00 0.0000000000000000e+00  1.0487834820032531e+00 0.0000000000000000e+00 0.0000000000000000e+00  1.0450189795408464e+00 0.0000000000000000e+00 0.0000000000000000e+00  1.0421179880049789e+00 0.0000000000000000e+00 0.0000000000000000e+00  1.0427302377754235e+00 0.0000000000000000e+00 0.0000000000000000e+00  1.0453884977749961e+00 0.0000000000000000e+00 0.0000000000000000e+00  1.0487870068335825e+00 0.0000000000000000e+00 0.0000000000000000e+00  1.0538226314362455e+00 0.0000000000000000e+00 0.0000000000000000e+00  1.0583407624841854e+00 0.0000000000000000e+00 0.0000000000000000e+00  1.0604389398855021e+00 0.0000000000000000e+00 0.0000000000000000e+00  1.0616864650120379e+00 0.0000000000000000e+00 0.0000000000000000e+00  1.0604523875515062e+00 0.0000000000000000e+00 0.0000000000000000e+00  1.0561721543025209e+00 0.0000000000000000e+00 0.0000000000000000e+00  1.0510949792070352e+00 0.0000000000000000e+00 0.0000000000000000e+00  1.0458637468717049e+00 0.0000000000000000e+00 0.0000000000000000e+00  1.0413089310686503e+00 0.0000000000000000e+00 0.0000000000000000e+00  1.0390786751268208e+00 0.0000000000000000e+00 0.0000000000000000e+00  1.0393566304900212e+00 0.0000000000000000e+00 0.0000000000000000e+00  1.0418182343269602e+00 0.0000000000000000e+00 0.0000000000000000e+00  1.0471833523608343e+00 0.0000000000000000e+00 0.0000000000000000e+00  1.0527179513249598e+00 0.0000000000000000e+00 0.0000000000000000e+00  1.0591777207860575e+00 0.0000000000000000e+00 0.0000000000000000e+00  1.0659798492601613e+00 0.0000000000000000e+00 0.0000000000000000e+00  1.0715564255514110e+00 0.0000000000000000e+00 0.0000000000000000e+00  1.0751659705530618e+00 0.0000000000000000e+00 0.0000000000000000e+00  1.0768876054325558e+00 0.0000000000000000e+00 0.0000000000000000e+00  1.0779470932015889e+00 0.0000000000000000e+00 0.0000000000000000e+00  1.0792372785210753e+00 0.0000000000000000e+00 0.0000000000000000e+00  1.0797268029431772e+00 0.0000000000000000e+00 0.0000000000000000e+00  1.0804323434995686e+00 0.0000000000000000e+00 0.0000000000000000e+00  1.0829400495455832e+00 0.0000000000000000e+00 0.0000000000000000e+00  1.0839616763075801e+00 0.0000000000000000e+00 0.0000000000000000e+00  1.0855335351658464e+00 0.0000000000000000e+00 0.0000000000000000e+00  1.0859217004421144e+00 0.0000000000000000e+00 0.0000000000000000e+00  1.0843516254335315e+00 0.0000000000000000e+00 0.0000000000000000e+00  1.0813919826079357e+00 0.0000000000000000e+00 0.0000000000000000e+00  1.0772021003213090e+00 0.0000000000000000e+00 0.0000000000000000e+00  1.0716334971058565e+00 0.0000000000000000e+00 0.0000000000000000e+00  1.0643313865145603e+00 0.0000000000000000e+00 0.0000000000000000e+00  1.0574017743822044e+00 0.0000000000000000e+00 0.0000000000000000e+00  1.0495849521508944e+00 0.0000000000000000e+00 0.0000000000000000e+00  1.0344248208369515e+00 0.0000000000000000e+00 0.0000000000000000e+00  1.0278172003470383e+00 0.0000000000000000e+00 0.0000000000000000e+00  1.0225562028253508e+00 0.0000000000000000e+00 0.0000000000000000e+00  1.0178136818627395e+00 0.0000000000000000e+00 0.0000000000000000e+00  1.0139418554818216e+00 0.0000000000000000e+00 0.0000000000000000e+00  1.0108769691481232e+00 0.0000000000000000e+00 0.0000000000000000e+00  1.0085299848665061e+00 0.0000000000000000e+00 0.0000000000000000e+00  1.0062539831648989e+00 0.0000000000000000e+00 0.0000000000000000e+00  1.0046368842945812e+00 0.0000000000000000e+00 0.0000000000000000e+00  1.0034802494722765e+00 0.0000000000000000e+00 0.0000000000000000e+00  1.0021432244249591e+00 0.0000000000000000e+00 0.0000000000000000e+00  1.0018360553860497e+00 0.0000000000000000e+00 0.0000000000000000e+00  1.0006255928023504e+00 0.0000000000000000e+00 0.0000000000000000e+00  1.0004722625749132e+00 0.0000000000000000e+00 0.0000000000000000e+00  9.9995966212141585e-01 0.0000000000000000e+00 0.0000000000000000e+00  1.0005603045356408e+00 0.0000000000000000e+00 0.0000000000000000e+00  1.0002715777252624e+00 0.0000000000000000e+00 0.0000000000000000e+00  9.9979966822989808e-01 0.0000000000000000e+00 0.0000000000000000e+00  1.0000001325673797e+00 0.0000000000000000e+00 0.0000000000000000e+00  1.0000001325673797e+00 0.0000000000000000e+00 0.0000000000000000e+00  1.0000001325673797e+00 0.0000000000000000e+00 0.0000000000000000e+00  1.0000001325673797e+00 0.0000000000000000e+00 0.0000000000000000e+00  1.0000001325673797e+00 0.0000000000000000e+00 0.0000000000000000e+00  1.0000001325673797e+00 0.0000000000000000e+00 0.0000000000000000e+00  1.0000001325673797e+00 0.0000000000000000e+00 0.0000000000000000e+00  1.0000001325673797e+00 0.0000000000000000e+00 0.0000000000000000e+00  1.0000001325673797e+00 0.0000000000000000e+00 0.0000000000000000e+00  1.0000001325673797e+00 0.0000000000000000e+00 0.0000000000000000e+00  1.0000001325673797e+00 0.0000000000000000e+00 0.0000000000000000e+00  1.0000001325673797e+00 0.0000000000000000e+00 0.0000000000000000e+00  1.0000001325673797e+00 0.0000000000000000e+00 0.0000000000000000e+00  1.0000001325673797e+00 0.0000000000000000e+00 0.0000000000000000e+00  1.0000001325673797e+00 0.0000000000000000e+00 0.0000000000000000e+00  1.0000001325673797e+00 0.0000000000000000e+00 0.0000000000000000e+00  1.0000001325673797e+00 0.0000000000000000e+00 0.0000000000000000e+00  1.0000001325673797e+00 0.0000000000000000e+00 0.0000000000000000e+00  1.0000001325673797e+00 0.0000000000000000e+00 0.0000000000000000e+00  1.0000001325673797e+00 0.0000000000000000e+00 0.0000000000000000e+00  1.0383088984736697e+00 -9.3422571182990993e-03 0.0000000000000000e+00  1.0351044475202091e+00 -1.8827213974505212e-02 0.0000000000000000e+00  1.0325599278369246e+00 -2.8925717571974343e-02 0.0000000000000000e+00  1.0264422733224510e+00 -3.9347697518887718e-02 0.0000000000000000e+00  1.0200502443935986e+00 -5.3512958120009453e-02 0.0000000000000000e+00  1.0242284890786675e+00 -5.6961852584107464e-02 0.0000000000000000e+00  1.0280215383720706e+00 -6.0503888441568232e-02 0.0000000000000000e+00  1.0327972847664917e+00 -6.3774798984646774e-02 0.0000000000000000e+00  1.0378234619798823e+00 -6.6925864814187178e-02 0.0000000000000000e+00  1.0434456941735524e+00 -6.9694205403871196e-02 0.0000000000000000e+00  1.0496210143952980e+00 -7.2145796996108527e-02 0.0000000000000000e+00  1.0561967110879453e+00 -7.3987636596408141e-02 0.0000000000000000e+00  1.0632538788418979e+00 -7.5327028364924734e-02 0.0000000000000000e+00  1.0703883665650267e+00 -7.5848572628424496e-02 0.0000000000000000e+00  1.0778055725534057e+00 -7.5799967302163110e-02 0.0000000000000000e+00  1.0851998402517542e+00 -7.5083394828379710e-02 0.0000000000000000e+00  1.0926488017557427e+00 -7.3403029868117670e-02 0.0000000000000000e+00  1.0997031840428988e+00 -7.0922707336690982e-02 0.0000000000000000e+00  1.1064376657759916e+00 -6.7915294817845626e-02 0.0000000000000000e+00  1.1127347876979146e+00 -6.4280579503067245e-02 0.0000000000000000e+00  1.1184516961204263e+00 -6.0150262528624085e-02 0.0000000000000000e+00  1.1235761865880922e+00 -5.5616484198213322e-02 0.0000000000000000e+00  1.1281896245201186e+00 -5.0891932989472317e-02 0.0000000000000000e+00  1.1322517290816791e+00 -4.5843103984623997e-02 0.0000000000000000e+00  1.1358470048789997e+00 -4.0895533468056709e-02 0.0000000000000000e+00  1.1390202896247070e+00 -3.5636150376523429e-02 0.0000000000000000e+00  1.1418129014293592e+00 -3.0341558798626135e-02 0.0000000000000000e+00  1.1444035706176106e+00 -2.5038486352238706e-02 0.0000000000000000e+00  1.1467005039167946e+00 -1.9604667032561952e-02 0.0000000000000000e+00  1.1487454008852018e+00 -1.3946087033004402e-02 0.0000000000000000e+00  1.1505119974147289e+00 -7.9452642453745580e-03 0.0000000000000000e+00  1.1519484406846479e+00 -1.6155406638079012e-03 0.0000000000000000e+00  1.1529256773063385e+00 5.1886626172255035e-03 0.0000000000000000e+00  1.1533564518427377e+00 1.2458228812400780e-02 0.0000000000000000e+00  1.1530376651458980e+00 2.0133874362867031e-02 0.0000000000000000e+00  1.1518572151292343e+00 2.8176343743833671e-02 0.