<?xml version="1.0"?>
<VTKFile type="UnstructuredGrid"  version="0.1"  >
<UnstructuredGrid>
<Piece  NumberOfPoints="10199" NumberOfCells="20110">
<Points>
<DataArray  type="Float64"  NumberOfComponents="3"  format="ascii">0 -5 0  8 -5 0  30 -5 0  40 -5 0  40 5 0  30 5 0  8 5 0  0 5 0  8 -2.5 0  15 -2.5 0  30 -2.5 0  30 2.5 0  15 2.5 0  8 2.5 0  10 0.5 0  10 -0.5 0  0 0 0  0.4210526315780956 -5 0  0.8421052631563433 -5 0  1.263157894734281 -5 0  1.684210526311999 -5 0  2.105263157889717 -5 0  2.526315789467435 -5 0  2.947368421045153 -5 0  3.368421052622872 -5 0  3.78947368420059 -5 0  4.210526315779479 -5 0  4.631578947359537 -5 0  5.052631578939595 -5 0  5.473684210519653 -5 0  5.89473684209971 -5 0  6.315789473679768 -5 0  6.736842105259826 -5 0  7.157894736839884 -5 0  7.578947368419942 -5 0  8.407407407405314 -5 0  8.814814814810628 -5 0  9.222222222215942 -5 0  9.629629629621256 -5 0  10.03703703702657 -5 0  10.44444444443188 -5 0  10.8518518518372 -5 0  11.25925925924251 -5 0  11.66666666664783 -5 0  12.07407407405314 -5 0  12.48148148145846 -5 0  12.88888888886377 -5 0  13.29629629626908 -5 0  13.7037037036744 -5 0  14.11111111107971 -5 0  14.51851851848502 -5 0  14.92592592589034 -5 0  15.33333333329565 -5 0  15.74074074070096 -5 0  16.14814814810754 -5 0  16.55555555551614 -5 0  16.96296296292474 -5 0  17.37037037033335 -5 0  17.77777777774195 -5 0  18.18518518515056 -5 0  18.59259259255916 -5 0  18.99999999996776 -5 0  19.40740740737636 -5 0  19.81481481478497 -5 0  20.22222222219357 -5 0  20.62962962960217 -5 0  21.03703703701077 -5 0  21.44444444441937 -5 0  21.85185185182797 -5 0  22.25925925923657 -5 0  22.66666666664518 -5 0  23.07407407405378 -5 0  23.48148148146238 -5 0  23.88888888887098 -5 0  24.29629629627958 -5 0  24.70370370368818 -5 0  25.11111111109678 -5 0  25.51851851850539 -5 0  25.92592592591399 -5 0  26.33333333332259 -5 0  26.74074074073119 -5 0  27.14814814813979 -5 0  27.55555555554839 -5 0  27.96296296295699 -5 0  28.3703703703656 -5 0  28.7777777777742 -5 0  29.1851851851828 -5 0  29.5925925925914 -5 0  30.41666666667852 -5 0  30.83333333335704 -5 0  31.25000000003556 -5 0  31.66666666671408 -5 0  32.08333333338936 -5 0  32.50000000005308 -5 0  32.9166666667168 -5 0  33.33333333338052 -5 0  33.75000000004424 -5 0  34.16666666670795 -5 0  34.58333333337167 -5 0  35.00000000003539 -5 0  35.41666666669911 -5 0  35.83333333336282 -5 0  36.25000000002654 -5 0  36.66666666669026 -5 0  37.08333333335398 -5 0  37.50000000001769 -5 0  37.91666666668141 -5 0  38.33333333334513 -5 0  38.75000000000885 -5 0  39.16666666667257 -5 0  39.58333333333628 -5 0  40 -4.583333333332821 0  40 -4.166666666665642 0  40 -3.74999999999855 0  40 -3.333333333333135 0  40 -2.916666666667806 0  40 -2.500000000002478 0  40 -2.083333333337148 0  40 -1.666666666671818 0  40 -1.250000000006488 0  40 -0.8333333333405228 0  40 -0.4166666666733416 0  40 -6.163070054299169e-12 0  40 0.4166666666610173 0  40 0.8333333333281976 0  40 1.249999999995378 0  40 1.666666666662558 0  40 2.083333333329739 0  40 2.499999999996919 0  40 2.916666666664099 0  40 3.33333333333128 0  40 3.74999999999846 0  40 4.166666666665641 0  40 4.583333333332821 0  39.58333333333628 5 0  39.16666666667256 5 0  38.75000000000885 5 0  38.33333333334513 5 0  37.91666666668141 5 0  37.50000000001769 5 0  37.08333333335398 5 0  36.66666666669025 5 0  36.25000000002654 5 0  35.83333333336282 5 0  35.41666666669911 5 0  35.00000000003539 5 0  34.58333333337167 5 0  34.16666666670795 5 0  33.75000000004424 5 0  33.33333333338052 5 0  32.9166666667168 5 0  32.50000000005308 5 0  32.08333333338936 5 0  31.66666666671408 5 0  31.25000000003556 5 0  30.83333333335704 5 0  30.41666666667852 5 0  29.59259259259259 5 0  29.18518518518519 5 0  28.77777777777778 5 0  28.37037037037037 5 0  27.96296296296296 5 0  27.55555555555556 5 0  27.14814814814815 5 0  26.74074074074074 5 0  26.33333333333333 5 0  25.92592592592593 5 0  25.51851851851852 5 0  25.11111111111111 5 0  24.7037037037037 5 0  24.2962962962963 5 0  23.88888888888889 5 0  23.48148148148148 5 0  23.07407407407408 5 0  22.66666666666667 5 0  22.25925925925926 5 0  21.85185185185185 5 0  21.44444444444445 5 0  21.03703703703704 5 0  20.62962962962963 5 0  20.22222222222222 5 0  19.81481481481482 5 0  19.40740740740741 5 0  19 5 0  18.5925925925926 5 0  18.18518518518519 5 0  17.77777777777778 5 0  17.37037037037037 5 0  16.96296296296296 5 0  16.55555555555556 5 0  16.14814814814815 5 0  15.74074074074074 5 0  15.33333333333333 5 0  14.92592592592593 5 0  14.51851851851852 5 0  14.11111111111111 5 0  13.70370370370371 5 0  13.2962962962963 5 0  12.88888888888889 5 0  12.48148148148148 5 0  12.07407407407408 5 0  11.66666666666667 5 0  11.25925925925926 5 0  10.85185185185185 5 0  10.44444444444445 5 0  10.03703703703704 5 0  9.629629629629633 5 0  9.222222222222221 5 0  8.814814814814817 5 0  8.407407407407408 5 0  7.5789473684193 5 0  7.157894736838599 5 0  6.73684210526082 5 0  6.315789473684795 5 0  5.894736842108769 5 0  5.473684210532742 5 0  5.052631578956715 5 0  4.631578947380689 5 0  4.210526315804662 5 0  3.789473684226299 5 0  3.368421052645599 5 0  2.947368421064898 5 0  2.526315789484198 5 0  2.105263157903499 5 0  1.6842105263228 5 0  1.2631578947421 5 0  0.8421052631613994 5 0  0.4210526315806993 5 0  0 4.545454545454545 0  0 4.09090909090909 0  0 3.636363636363634 0  0 3.18181818181818 0  0 2.727272727272726 0  0 2.272727272727271 0  0 1.818181818181817 0  0 1.363636363636363 0  0 0.9090909090909092 0  0 0.454545454545455 0  0 -0.4545454545450807 0  0 -0.9090909090895867 0  0 -1.363636363633713 0  0 -1.818181818177841 0  0 -2.272727272723127 0  0 -2.727272727269273 0  0 -3.181818181815419 0  0 -3.636363636361564 0  0 -4.090909090907709 0  0 -4.545454545453855 0  8 -4.499999999999999 0  8 -3.999999999999999 0  8 -3.499999999999999 0  8 -3 0  8.137254901963859 -2.5 0  8.274509803926303 -2.5 0  8.411764705886863 -2.5 0  8.549019607849138 -2.5 0  8.686274509809513 -2.5 0  8.82352941176989 -2.5 0  8.960784313730265 -2.5 0  9.098039215690642 -2.5 0  9.235294117651017 -2.5 0  9.372549019611395 -2.5 0  9.50980392157177 -2.5 0  9.647058823532147 -2.5 0  9.784313725492522 -2.5 0  9.921568627452897 -2.5 0  10.05882352941327 -2.5 0  10.19607843137365 -2.5 0  10.33333333333402 -2.5 0  10.4705882352944 -2.5 0  10.60784313725478 -2.5 0  10.74509803921515 -2.5 0  10.88235294117553 -2.5 0  11.0196078431359 -2.5 0  11.15686274509628 -2.5 0  11.29411764705665 -2.5 0  11.43137254901703 -2.5 0  11.56862745097915 -2.5 0  11.70588235294301 -2.5 0  11.84313725490686 -2.5 0  11.98039215687072 -2.5 0  12.11764705883209 -2.5 0  12.25490196079247 -2.5 0  12.39215686275285 -2.5 0  12.52941176471322 -2.5 0  12.6666666666736 -2.5 0  12.80392156863397 -2.5 0  12.94117647059435 -2.5 0  13.07843137255473 -2.5 0  13.2156862745151 -2.5 0  13.35294117647548 -2.5 0  13.49019607843586 -2.5 0  13.62745098039623 -2.5 0  13.76470588235661 -2.5 0  13.90196078431699 -2.5 0  14.03921568627736 -2.5 0  14.17647058823774 -2.5 0  14.31372549019812 -2.5 0  14.45098039215849 -2.5 0  14.58823529411887 -2.5 0  14.72549019607925 -2.5 0  14.86274509803962 -2.5 0  15.20270270270254 -2.5 0  15.40540540540509 -2.5 0  15.60810810810763 -2.5 0  15.81081081081017 -2.5 0  16.01351351351227 -2.5 0  16.21621621621265 -2.5 0  16.41891891891279 -2.5 0  16.62162162161294 -2.5 0  16.82432432431308 -2.5 0  17.02702702701322 -2.5 0  17.22972972971337 -2.5 0  17.43243243241351 -2.5 0  17.63513513511365 -2.5 0  17.83783783781379 -2.5 0  18.04054054051394 -2.5 0  18.24324324321408 -2.5 0  18.44594594591422 -2.5 0  18.64864864861436 -2.5 0  18.85135135131451 -2.5 0  19.05405405401465 -2.5 0  19.25675675671479 -2.5 0  19.45945945941494 -2.5 0  19.66216216211508 -2.5 0  19.86486486481522 -2.5 0  20.06756756751536 -2.5 0  20.27027027021551 -2.5 0  20.47297297291565 -2.5 0  20.6756756756158 -2.5 0  20.87837837831594 -2.5 0  21.08108108101608 -2.5 0  21.28378378371622 -2.5 0  21.48648648641637 -2.5 0  21.68918918911651 -2.5 0  21.89189189181666 -2.5 0  22.0945945945168 -2.5 0  22.29729729721694 -2.5 0  22.49999999991778 -2.5 0  22.70270270262203 -2.5 0  22.90540540532697 -2.5 0  23.10810810803191 -2.5 0  23.31081081073686 -2.5 0  23.5135135134418 -2.5 0  23.71621621614674 -2.5 0  23.91891891885169 -2.5 0  24.12162162155663 -2.5 0  24.32432432426158 -2.5 0  24.52702702696652 -2.5 0  24.72972972967146 -2.5 0  24.93243243237641 -2.5 0  25.13513513508135 -2.5 0  25.3378378377863 -2.5 0  25.54054054049124 -2.5 0  25.74324324319618 -2.5 0  25.94594594590112 -2.5 0  26.14864864860607 -2.5 0  26.35135135131101 -2.5 0  26.55405405401596 -2.5 0  26.7567567567209 -2.5 0  26.95945945942584 -2.5 0  27.16216216213079 -2.5 0  27.36486486483573 -2.5 0  27.56756756754068 -2.5 0  27.77027027024562 -2.5 0  27.97297297295056 -2.5 0  28.1756756756555 -2.5 0  28.37837837836045 -2.5 0  28.5810810810654 -2.5 0  28.78378378377034 -2.5 0  28.98648648647528 -2.5 0  29.18918918918023 -2.5 0  29.39189189188517 -2.5 0  29.59459459459011 -2.5 0  29.79729729729506 -2.5 0  30 -3.000000000000001 0  30 -3.500000000000001 0  30 -4.000000000000001 0  30 -4.5 0  8 4.499999999999999 0  8 3.999999999999999 0  8 3.499999999999999 0  8 3 0  8.137254901963859 2.5 0  8.274509803926303 2.5 0  8.411764705886863 2.5 0  8.549019607849138 2.5 0  8.686274509809513 2.5 0  8.82352941176989 2.5 0  8.960784313730265 2.5 0  9.098039215690642 2.5 0  9.235294117651017 2.5 0  9.372549019611395 2.5 0  9.50980392157177 2.5 0  9.647058823532147 2.5 0  9.784313725492522 2.5 0  9.921568627452897 2.5 0  10.05882352941327 2.5 0  10.19607843137365 2.5 0  10.33333333333402 2.5 0  10.4705882352944 2.5 0  10.60784313725478 2.5 0  10.74509803921515 2.5 0  10.88235294117553 2.5 0  11.0196078431359 2.5 0  11.15686274509628 2.5 0  11.29411764705665 2.5 0  11.43137254901703 2.5 0  11.56862745097915 2.5 0  11.70588235294301 2.5 0  11.84313725490686 2.5 0  11.98039215687072 2.5 0  12.11764705883209 2.5 0  12.25490196079247 2.5 0  1
[...]
<PointData  Vectors="f_17"> 
<DataArray  type="Float64"  Name="f_17"  NumberOfComponents="3" format="ascii">1.0000001312954294e+00 0.0000000000000000e+00 0.0000000000000000e+00  1.0396673948076356e+00 0.0000000000000000e+00 0.0000000000000000e+00  1.0647576997611226e+00 0.0000000000000000e+00 0.0000000000000000e+00  1.0923049817156050e+00 0.0000000000000000e+00 0.0000000000000000e+00  1.0730013237176703e+00 0.0000000000000000e+00 0.0000000000000000e+00  1.0496896886869396e+00 0.0000000000000000e+00 0.0000000000000000e+00  1.0411825844759448e+00 0.0000000000000000e+00 0.0000000000000000e+00  1.0000001312954294e+00 0.0000000000000000e+00 0.0000000000000000e+00  1.0216115714588656e+00 -4.9314386708682184e-02 0.0000000000000000e+00  1.0553945511162939e+00 9.1133472340628893e-02 0.0000000000000000e+00  1.1285621605268066e+00 4.1344987099204637e-02 0.0000000000000000e+00  9.9627659705572091e-01 3.7172030926886743e-02 0.0000000000000000e+00  1.0541972589982604e+00 6.1800367275730801e-02 0.0000000000000000e+00  1.0211917887637523e+00 5.2276391693125007e-02 0.0000000000000000e+00  0.0000000000000000e+00 0.0000000000000000e+00 0.0000000000000000e+00  0.0000000000000000e+00 0.0000000000000000e+00 0.0000000000000000e+00  1.0000001312954294e+00 0.0000000000000000e+00 0.0000000000000000e+00  9.9930722764718871e-01 0.0000000000000000e+00 0.0000000000000000e+00  9.9880261216611821e-01 0.0000000000000000e+00 0.0000000000000000e+00  1.0009034222249449e+00 0.0000000000000000e+00 0.0000000000000000e+00  1.0007527122618383e+00 0.0000000000000000e+00 0.0000000000000000e+00  1.0017281151902735e+00 0.0000000000000000e+00 0.0000000000000000e+00  1.0020145392510260e+00 0.0000000000000000e+00 0.0000000000000000e+00  1.0022262667219433e+00 0.0000000000000000e+00 0.0000000000000000e+00  1.0029269884685772e+00 0.0000000000000000e+00 0.0000000000000000e+00  1.0040104880992318e+00 0.0000000000000000e+00 0.0000000000000000e+00  1.0049752213707361e+00 0.0000000000000000e+00 0.0000000000000000e+00  1.0063018505494146e+00 0.0000000000000000e+00 0.0000000000000000e+00  1.0083827380508019e+00 0.0000000000000000e+00 0.0000000000000000e+00  1.0105982452600135e+00 0.0000000000000000e+00 0.0000000000000000e+00  1.0144090432759350e+00 0.0000000000000000e+00 0.0000000000000000e+00  1.0159883149300475e+00 0.0000000000000000e+00 0.0000000000000000e+00  1.0203765581371571e+00 0.0000000000000000e+00 0.0000000000000000e+00  1.0269091397539734e+00 0.0000000000000000e+00 0.0000000000000000e+00  1.0320749239441860e+00 0.0000000000000000e+00 0.0000000000000000e+00  1.0472653027262380e+00 0.0000000000000000e+00 0.0000000000000000e+00  1.0552716528574890e+00 0.0000000000000000e+00 0.0000000000000000e+00  1.0626861105359942e+00 0.0000000000000000e+00 0.0000000000000000e+00  1.0705491064243693e+00 0.0000000000000000e+00 0.0000000000000000e+00  1.0770292256222223e+00 0.0000000000000000e+00 0.0000000000000000e+00  1.0829271136520566e+00 0.0000000000000000e+00 0.0000000000000000e+00  1.0885854819889500e+00 0.0000000000000000e+00 0.0000000000000000e+00  1.0919015931227167e+00 0.0000000000000000e+00 0.0000000000000000e+00  1.0945510053070810e+00 0.0000000000000000e+00 0.0000000000000000e+00  1.0956446388460639e+00 0.0000000000000000e+00 0.0000000000000000e+00  1.0957664098100843e+00 0.0000000000000000e+00 0.0000000000000000e+00  1.0933758021931193e+00 0.0000000000000000e+00 0.0000000000000000e+00  1.0904158436643636e+00 0.0000000000000000e+00 0.0000000000000000e+00  1.0856268283786794e+00 0.0000000000000000e+00 0.0000000000000000e+00  1.0792678408105356e+00 0.0000000000000000e+00 0.0000000000000000e+00  1.0722777762675550e+00 0.0000000000000000e+00 0.0000000000000000e+00  1.0647743607402766e+00 0.0000000000000000e+00 0.0000000000000000e+00  1.0577771893016408e+00 0.0000000000000000e+00 0.0000000000000000e+00  1.0516041141196999e+00 0.0000000000000000e+00 0.0000000000000000e+00  1.0470801041120712e+00 0.0000000000000000e+00 0.0000000000000000e+00  1.0459030238005811e+00 0.0000000000000000e+00 0.0000000000000000e+00  1.0474787836241661e+00 0.0000000000000000e+00 0.0000000000000000e+00  1.0498067804967735e+00 0.0000000000000000e+00 0.0000000000000000e+00  1.0541382959468575e+00 0.0000000000000000e+00 0.0000000000000000e+00  1.0584576646126922e+00 0.0000000000000000e+00 0.0000000000000000e+00  1.0616291316602311e+00 0.0000000000000000e+00 0.0000000000000000e+00  1.0633838169893328e+00 0.0000000000000000e+00 0.0000000000000000e+00  1.0623136913795459e+00 0.0000000000000000e+00 0.0000000000000000e+00  1.0591747744884148e+00 0.0000000000000000e+00 0.0000000000000000e+00  1.0548388508300015e+00 0.0000000000000000e+00 0.0000000000000000e+00  1.0492361990221060e+00 0.0000000000000000e+00 0.0000000000000000e+00  1.0440895332480828e+00 0.0000000000000000e+00 0.0000000000000000e+00  1.0419645343386097e+00 0.0000000000000000e+00 0.0000000000000000e+00  1.0409239603302645e+00 0.0000000000000000e+00 0.0000000000000000e+00  1.0420068069937964e+00 0.0000000000000000e+00 0.0000000000000000e+00  1.0462221277285055e+00 0.0000000000000000e+00 0.0000000000000000e+00  1.0507985521144958e+00 0.0000000000000000e+00 0.0000000000000000e+00  1.0554739486545066e+00 0.0000000000000000e+00 0.0000000000000000e+00  1.0608246752578896e+00 0.0000000000000000e+00 0.0000000000000000e+00  1.0634767244777290e+00 0.0000000000000000e+00 0.0000000000000000e+00  1.0636619724606313e+00 0.0000000000000000e+00 0.0000000000000000e+00  1.0623978602208719e+00 0.0000000000000000e+00 0.0000000000000000e+00  1.0588107667997373e+00 0.0000000000000000e+00 0.0000000000000000e+00  1.0545357706528300e+00 0.0000000000000000e+00 0.0000000000000000e+00  1.0512648885260918e+00 0.0000000000000000e+00 0.0000000000000000e+00  1.0483546971089999e+00 0.0000000000000000e+00 0.0000000000000000e+00  1.0470555576086151e+00 0.0000000000000000e+00 0.0000000000000000e+00  1.0502570108587921e+00 0.0000000000000000e+00 0.0000000000000000e+00  1.0530671119078301e+00 0.0000000000000000e+00 0.0000000000000000e+00  1.0553109554644136e+00 0.0000000000000000e+00 0.0000000000000000e+00  1.0587606128527602e+00 0.0000000000000000e+00 0.0000000000000000e+00  1.0629040982650215e+00 0.0000000000000000e+00 0.0000000000000000e+00  1.0646180493161999e+00 0.0000000000000000e+00 0.0000000000000000e+00  1.0626794803432809e+00 0.0000000000000000e+00 0.0000000000000000e+00  1.0586022052028916e+00 0.0000000000000000e+00 0.0000000000000000e+00  1.0541674660671190e+00 0.0000000000000000e+00 0.0000000000000000e+00  1.0514195165838058e+00 0.0000000000000000e+00 0.0000000000000000e+00  1.0502852125813325e+00 0.0000000000000000e+00 0.0000000000000000e+00  1.0506550418543605e+00 0.0000000000000000e+00 0.0000000000000000e+00  1.0530698984129876e+00 0.0000000000000000e+00 0.0000000000000000e+00  1.0569851564443438e+00 0.0000000000000000e+00 0.0000000000000000e+00  1.0614578918470075e+00 0.0000000000000000e+00 0.0000000000000000e+00  1.0648495725066496e+00 0.0000000000000000e+00 0.0000000000000000e+00  1.0675156895158930e+00 0.0000000000000000e+00 0.0000000000000000e+00  1.0680600368794888e+00 0.0000000000000000e+00 0.0000000000000000e+00  1.0666663561603600e+00 0.0000000000000000e+00 0.0000000000000000e+00  1.0644936671820737e+00 0.0000000000000000e+00 0.0000000000000000e+00  1.0617339444575817e+00 0.0000000000000000e+00 0.0000000000000000e+00  1.0599266327750241e+00 0.0000000000000000e+00 0.0000000000000000e+00  1.0587590278717367e+00 0.0000000000000000e+00 0.0000000000000000e+00  1.0601723894724815e+00 0.0000000000000000e+00 0.0000000000000000e+00  1.0636010713768405e+00 0.0000000000000000e+00 0.0000000000000000e+00  1.0695454908438347e+00 0.0000000000000000e+00 0.0000000000000000e+00  1.0760078472398305e+00 0.0000000000000000e+00 0.0000000000000000e+00  1.0831500920334443e+00 0.0000000000000000e+00 0.0000000000000000e+00  1.0882388223996311e+00 0.0000000000000000e+00 0.0000000000000000e+00  1.0941860194472743e+00 -2.6341338178357547e-03 0.0000000000000000e+00  1.0994810475326848e+00 -5.4108820877178032e-03 0.0000000000000000e+00  1.1100528466333266e+00 -8.3783758973685479e-03 0.0000000000000000e+00  1.1282605101214356e+00 -1.1534596330368871e-02 0.0000000000000000e+00  1.1583579158823853e+00 -1.3265575349631860e-02 0.0000000000000000e+00  1.1859287263728382e+00 -1.3791418542924087e-02 0.0000000000000000e+00  1.1846578250459774e+00 -3.6305454649363128e-03 0.0000000000000000e+00  1.1283990796786600e+00 1.4740103323425478e-02 0.0000000000000000e+00  1.0119364196703022e+00 4.5927672000195381e-02 0.0000000000000000e+00  8.6904516430243306e-01 8.0994863521066246e-02 0.0000000000000000e+00  7.5638181231475166e-01 1.0973163330320865e-01 0.0000000000000000e+00  7.0711857536800027e-01 1.2142621714618579e-01 0.0000000000000000e+00  7.2285946875285534e-01 1.1579719644139168e-01 0.0000000000000000e+00  7.7655897794856976e-01 1.0583679535937655e-01 0.0000000000000000e+00  8.4447179954238627e-01 8.1550046473413546e-02 0.0000000000000000e+00  9.0505250106759050e-01 5.3926160292579385e-02 0.0000000000000000e+00  9.5564977505465298e-01 3.3546765096621120e-02 0.0000000000000000e+00  9.9881989452429554e-01 2.2363572010311611e-02 0.0000000000000000e+00  1.0304637181369127e+00 1.8697653237661975e-02 0.0000000000000000e+00  1.0517026499837179e+00 1.4461888638610698e-02 0.0000000000000000e+00  1.0634561101823921e+00 1.0781887704088359e-02 0.0000000000000000e+00  1.0701530810182629e+00 7.1139164028531125e-03 0.0000000000000000e+00  1.0727011340267765e+00 3.4636509621616489e-03 0.0000000000000000e+00  1.0704634621901905e+00 0.0000000000000000e+00 0.0000000000000000e+00  1.0700326275412870e+00 0.0000000000000000e+00 0.0000000000000000e+00  1.0709698956396070e+00 0.0000000000000000e+00 0.0000000000000000e+00  1.0728094475049923e+00 0.0000000000000000e+00 0.0000000000000000e+00  1.0736454762177086e+00 0.0000000000000000e+00 0.0000000000000000e+00  1.0737407217895678e+00 0.0000000000000000e+00 0.0000000000000000e+00  1.0724532481092033e+00 0.0000000000000000e+00 0.0000000000000000e+00  1.0695259778269635e+00 0.0000000000000000e+00 0.0000000000000000e+00  1.0647437560836006e+00 0.0000000000000000e+00 0.0000000000000000e+00  1.0598819064214338e+00 0.0000000000000000e+00 0.0000000000000000e+00  1.0556796025044666e+00 0.0000000000000000e+00 0.0000000000000000e+00  1.0527962910043298e+00 0.0000000000000000e+00 0.0000000000000000e+00  1.0521143739486625e+00 0.0000000000000000e+00 0.0000000000000000e+00  1.0540857512671469e+00 0.0000000000000000e+00 0.0000000000000000e+00  1.0569064828118773e+00 0.0000000000000000e+00 0.0000000000000000e+00  1.0611678744728066e+00 0.0000000000000000e+00 0.0000000000000000e+00  1.0637774663904331e+00 0.0000000000000000e+00 0.0000000000000000e+00  1.0655652256940575e+00 0.0000000000000000e+00 0.0000000000000000e+00  1.0652030843478733e+00 0.0000000000000000e+00 0.0000000000000000e+00  1.0635182190267285e+00 0.0000000000000000e+00 0.0000000000000000e+00  1.0602152140004129e+00 0.0000000000000000e+00 0.0000000000000000e+00  1.0556939906314937e+00 0.0000000000000000e+00 0.0000000000000000e+00  1.0522293917904091e+00 0.0000000000000000e+00 0.0000000000000000e+00  1.0482766103726917e+00 0.0000000000000000e+00 0.0000000000000000e+00  1.0495758050631858e+00 0.0000000000000000e+00 0.0000000000000000e+00  1.0514429782864330e+00 0.0000000000000000e+00 0.0000000000000000e+00  1.0558665526265718e+00 0.0000000000000000e+00 0.0000000000000000e+00  1.0612494779181485e+00 0.0000000000000000e+00 0.0000000000000000e+00  1.0643147610016317e+00 0.0000000000000000e+00 0.0000000000000000e+00  1.0637648003757527e+00 0.0000000000000000e+00 0.0000000000000000e+00  1.0633069675700373e+00 0.0000000000000000e+00 0.0000000000000000e+00  1.0606478241707669e+00 0.0000000000000000e+00 0.0000000000000000e+00  1.0558407807362733e+00 0.0000000000000000e+00 0.0000000000000000e+00  1.0513677297536423e+00 0.0000000000000000e+00 0.0000000000000000e+00  1.0475575012528340e+00 0.0000000000000000e+00 0.0000000000000000e+00  1.0445791708888426e+00 0.0000000000000000e+00 0.0000000000000000e+00  1.0444362205214617e+00 0.0000000000000000e+00 0.0000000000000000e+00  1.0463533661998612e+00 0.0000000000000000e+00 0.0000000000000000e+00  1.0490191986989190e+00 0.0000000000000000e+00 0.0000000000000000e+00  1.0538603584140755e+00 0.0000000000000000e+00 0.0000000000000000e+00  1.0584055741209604e+00 0.0000000000000000e+00 0.0000000000000000e+00  1.0608999737170617e+00 0.0000000000000000e+00 0.0000000000000000e+00  1.0621539592651050e+00 0.0000000000000000e+00 0.0000000000000000e+00  1.0608057669989546e+00 0.0000000000000000e+00 0.0000000000000000e+00  1.0561420536007458e+00 0.0000000000000000e+00 0.0000000000000000e+00  1.0515046604929634e+00 0.0000000000000000e+00 0.0000000000000000e+00  1.0463885406985056e+00 0.0000000000000000e+00 0.0000000000000000e+00  1.0412383085890051e+00 0.0000000000000000e+00 0.0000000000000000e+00  1.0384040331721036e+00 0.0000000000000000e+00 0.0000000000000000e+00  1.0379336434327657e+00 0.0000000000000000e+00 0.0000000000000000e+00  1.0396620431022199e+00 0.0000000000000000e+00 0.0000000000000000e+00  1.0439223641030186e+00 0.0000000000000000e+00 0.0000000000000000e+00  1.0497153587445274e+00 0.0000000000000000e+00 0.0000000000000000e+00  1.0556921181785146e+00 0.0000000000000000e+00 0.0000000000000000e+00  1.0619840080360579e+00 0.0000000000000000e+00 0.0000000000000000e+00  1.0657935556684845e+00 0.0000000000000000e+00 0.0000000000000000e+00  1.0681798042831860e+00 0.0000000000000000e+00 0.0000000000000000e+00  1.0696316748852805e+00 0.0000000000000000e+00 0.0000000000000000e+00  1.0695568844101915e+00 0.0000000000000000e+00 0.0000000000000000e+00  1.0684577567527827e+00 0.0000000000000000e+00 0.0000000000000000e+00  1.0672904229858833e+00 0.0000000000000000e+00 0.0000000000000000e+00  1.0675850513175427e+00 0.0000000000000000e+00 0.0000000000000000e+00  1.0701145220227046e+00 0.0000000000000000e+00 0.0000000000000000e+00  1.0733247119482823e+00 0.0000000000000000e+00 0.0000000000000000e+00  1.0773682801482318e+00 0.0000000000000000e+00 0.0000000000000000e+00  1.0832033903302671e+00 0.0000000000000000e+00 0.0000000000000000e+00  1.0868700222928591e+00 0.0000000000000000e+00 0.0000000000000000e+00  1.0901608245408396e+00 0.0000000000000000e+00 0.0000000000000000e+00  1.0912417462161208e+00 0.0000000000000000e+00 0.0000000000000000e+00  1.0895839868161277e+00 0.0000000000000000e+00 0.0000000000000000e+00  1.0858918457319158e+00 0.0000000000000000e+00 0.0000000000000000e+00  1.0806239079849749e+00 0.0000000000000000e+00 0.0000000000000000e+00  1.0739268621550881e+00 0.0000000000000000e+00 0.0000000000000000e+00  1.0655223681757617e+00 0.0000000000000000e+00 0.0000000000000000e+00  1.0577303582326758e+00 0.0000000000000000e+00 0.0000000000000000e+00  1.0492610092569488e+00 0.0000000000000000e+00 0.0000000000000000e+00  1.0333998224254635e+00 0.0000000000000000e+00 0.0000000000000000e+00  1.0267021998132406e+00 0.0000000000000000e+00 0.0000000000000000e+00  1.0214285036684831e+00 0.0000000000000000e+00 0.0000000000000000e+00  1.0167349074541776e+00 0.0000000000000000e+00 0.0000000000000000e+00  1.0128917271013629e+00 0.0000000000000000e+00 0.0000000000000000e+00  1.0098609880798370e+00 0.0000000000000000e+00 0.0000000000000000e+00  1.0075357900493938e+00 0.0000000000000000e+00 0.0000000000000000e+00  1.0052605326953128e+00 0.0000000000000000e+00 0.0000000000000000e+00  1.0036630933432431e+00 0.0000000000000000e+00 0.0000000000000000e+00  1.0025153955310542e+00 0.0000000000000000e+00 0.0000000000000000e+00  1.0012419714505840e+00 0.0000000000000000e+00 0.0000000000000000e+00  1.0010250221029418e+00 0.0000000000000000e+00 0.0000000000000000e+00  9.9994497098204849e-01 0.0000000000000000e+00 0.0000000000000000e+00  9.9993770867625820e-01 0.0000000000000000e+00 0.0000000000000000e+00  9.9960151184697055e-01 0.0000000000000000e+00 0.0000000000000000e+00  1.0003460100665529e+00 0.0000000000000000e+00 0.0000000000000000e+00  1.0001797745023366e+00 0.0000000000000000e+00 0.0000000000000000e+00  9.9978689967807133e-01 0.0000000000000000e+00 0.0000000000000000e+00  1.0000001312954294e+00 0.0000000000000000e+00 0.0000000000000000e+00  1.0000001312954294e+00 0.0000000000000000e+00 0.0000000000000000e+00  1.0000001312954294e+00 0.0000000000000000e+00 0.0000000000000000e+00  1.0000001312954294e+00 0.0000000000000000e+00 0.0000000000000000e+00  1.0000001312954294e+00 0.0000000000000000e+00 0.0000000000000000e+00  1.0000001312954294e+00 0.0000000000000000e+00 0.0000000000000000e+00  1.0000001312954294e+00 0.0000000000000000e+00 0.0000000000000000e+00  1.0000001312954294e+00 0.0000000000000000e+00 0.0000000000000000e+00  1.0000001312954294e+00 0.0000000000000000e+00 0.0000000000000000e+00  1.0000001312954294e+00 0.0000000000000000e+00 0.0000000000000000e+00  1.0000001312954294e+00 0.0000000000000000e+00 0.0000000000000000e+00  1.0000001312954294e+00 0.0000000000000000e+00 0.0000000000000000e+00  1.0000001312954294e+00 0.0000000000000000e+00 0.0000000000000000e+00  1.0000001312954294e+00 0.0000000000000000e+00 0.0000000000000000e+00  1.0000001312954294e+00 0.0000000000000000e+00 0.0000000000000000e+00  1.0000001312954294e+00 0.0000000000000000e+00 0.0000000000000000e+00  1.0000001312954294e+00 0.0000000000000000e+00 0.0000000000000000e+00  1.0000001312954294e+00 0.0000000000000000e+00 0.0000000000000000e+00  1.0000001312954294e+00 0.0000000000000000e+00 0.0000000000000000e+00  1.0000001312954294e+00 0.0000000000000000e+00 0.0000000000000000e+00  1.0390960637636149e+00 -8.9005000189962911e-03 0.0000000000000000e+00  1.0362905475056186e+00 -1.8018567804573202e-02 0.0000000000000000e+00  1.0344036630206557e+00 -2.8037711068795726e-02 0.0000000000000000e+00  1.0292643783508999e+00 -3.8469717969741773e-02 0.0000000000000000e+00  1.0242764382267437e+00 -5.2654449614185424e-02 0.0000000000000000e+00  1.0287286642872855e+00 -5.5612142138225698e-02 0.0000000000000000e+00  1.0327039276440897e+00 -5.8607951100810622e-02 0.0000000000000000e+00  1.0376823629249252e+00 -6.1228063243547001e-02 0.0000000000000000e+00  1.0428424926945623e+00 -6.3656116853607989e-02 0.0000000000000000e+00  1.0485609425163986e+00 -6.5588830438657902e-02 0.0000000000000000e+00  1.0547722283198429e+00 -6.7128770808005056e-02 0.0000000000000000e+00  1.0612769609564039e+00 -6.7953471607389015e-02 0.0000000000000000e+00  1.0681865868614486e+00 -6.8173930855602305e-02 0.0000000000000000e+00  1.0749998954431637e+00 -6.7470434215287076e-02 0.0000000000000000e+00  1.0819577104153051e+00 -6.6135234380527208e-02 0.0000000000000000e+00  1.0886663020541243e+00 -6.4092766271353185e-02 0.0000000000000000e+00  1.0952434431217954e+00 -6.1003826704736835e-02 0.0000000000000000e+00  1.1011458800257792e+00 -5.7070950890193074e-02 0.0000000000000000e+00  1.1064194553180229e+00 -5.2674593875698138e-02 0.0000000000000000e+00  1.1109334772498300e+00 -4.7715725671448037e-02 0.0000000000000000e+00  1.1145091345882916e+00 -4.2405137878866489e-02 0.0000000000000000e+00  1.1170866946783549e+00 -3.6894106382373074e-02 0.0000000000000000e+00  1.1188047406330512e+00 -3.1532216115264147e-02 0.0000000000000000e+00  1.1195762435784236e+00 -2.6195169945080737e-02 0.0000000000000000e+00  1.1195473768510573e+00 -2.1588044845331937e-02 0.0000000000000000e+00  1.1188108843080944e+00 -1.7181362924435943e-02 0.0000000000000000e+00  1.1175056663298923e+00 -1.3517295978327574e-02 0.0000000000000000e+00  1.1159929060713949e+00 -1.0783674994443859e-02 0.0000000000000000e+00  1.1143268949582814e+00 -8.8831254131381179e-03 0.0000000000000000e+00  1.1127595375322614e+00 -7.7762875264891186e-03 0.0000000000000000e+00  1.1115208506609990e+00 -7.2644948594721096e-03 0.0000000000000000e+00  1.1108761464285140e+00 -7.3933837953849973e-03 0.0000000000000000e+00  1.1107857638068634e+00 -7.8639772634250728e-03 0.0000000000000000e+00  1.1115871507238910e+00 -8.4332978772185714e-03 0.0000000000000000e+00  1.1132189349675450e+00 -8.9375242073594062e-03 0.0000000000000000e+00  1.1156127926178736e+00 -8.9765660160127