<?xml version="1.0"?>
<VTKFile type="UnstructuredGrid"  version="0.1"  >
<UnstructuredGrid>
<Piece  NumberOfPoints="10199" NumberOfCells="20110">
<Points>
<DataArray  type="Float64"  NumberOfComponents="3"  format="ascii">0 -5 0  8 -5 0  30 -5 0  40 -5 0  40 5 0  30 5 0  8 5 0  0 5 0  8 -2.5 0  15 -2.5 0  30 -2.5 0  30 2.5 0  15 2.5 0  8 2.5 0  10 0.5 0  10 -0.5 0  0 0 0  0.4210526315780956 -5 0  0.8421052631563433 -5 0  1.263157894734281 -5 0  1.684210526311999 -5 0  2.105263157889717 -5 0  2.526315789467435 -5 0  2.947368421045153 -5 0  3.368421052622872 -5 0  3.78947368420059 -5 0  4.210526315779479 -5 0  4.631578947359537 -5 0  5.052631578939595 -5 0  5.473684210519653 -5 0  5.89473684209971 -5 0  6.315789473679768 -5 0  6.736842105259826 -5 0  7.157894736839884 -5 0  7.578947368419942 -5 0  8.407407407405314 -5 0  8.814814814810628 -5 0  9.222222222215942 -5 0  9.629629629621256 -5 0  10.03703703702657 -5 0  10.44444444443188 -5 0  10.8518518518372 -5 0  11.25925925924251 -5 0  11.66666666664783 -5 0  12.07407407405314 -5 0  12.48148148145846 -5 0  12.88888888886377 -5 0  13.29629629626908 -5 0  13.7037037036744 -5 0  14.11111111107971 -5 0  14.51851851848502 -5 0  14.92592592589034 -5 0  15.33333333329565 -5 0  15.74074074070096 -5 0  16.14814814810754 -5 0  16.55555555551614 -5 0  16.96296296292474 -5 0  17.37037037033335 -5 0  17.77777777774195 -5 0  18.18518518515056 -5 0  18.59259259255916 -5 0  18.99999999996776 -5 0  19.40740740737636 -5 0  19.81481481478497 -5 0  20.22222222219357 -5 0  20.62962962960217 -5 0  21.03703703701077 -5 0  21.44444444441937 -5 0  21.85185185182797 -5 0  22.25925925923657 -5 0  22.66666666664518 -5 0  23.07407407405378 -5 0  23.48148148146238 -5 0  23.88888888887098 -5 0  24.29629629627958 -5 0  24.70370370368818 -5 0  25.11111111109678 -5 0  25.51851851850539 -5 0  25.92592592591399 -5 0  26.33333333332259 -5 0  26.74074074073119 -5 0  27.14814814813979 -5 0  27.55555555554839 -5 0  27.96296296295699 -5 0  28.3703703703656 -5 0  28.7777777777742 -5 0  29.1851851851828 -5 0  29.5925925925914 -5 0  30.41666666667852 -5 0  30.83333333335704 -5 0  31.25000000003556 -5 0  31.66666666671408 -5 0  32.08333333338936 -5 0  32.50000000005308 -5 0  32.9166666667168 -5 0  33.33333333338052 -5 0  33.75000000004424 -5 0  34.16666666670795 -5 0  34.58333333337167 -5 0  35.00000000003539 -5 0  35.41666666669911 -5 0  35.83333333336282 -5 0  36.25000000002654 -5 0  36.66666666669026 -5 0  37.08333333335398 -5 0  37.50000000001769 -5 0  37.91666666668141 -5 0  38.33333333334513 -5 0  38.75000000000885 -5 0  39.16666666667257 -5 0  39.58333333333628 -5 0  40 -4.583333333332821 0  40 -4.166666666665642 0  40 -3.74999999999855 0  40 -3.333333333333135 0  40 -2.916666666667806 0  40 -2.500000000002478 0  40 -2.083333333337148 0  40 -1.666666666671818 0  40 -1.250000000006488 0  40 -0.8333333333405228 0  40 -0.4166666666733416 0  40 -6.163070054299169e-12 0  40 0.4166666666610173 0  40 0.8333333333281976 0  40 1.249999999995378 0  40 1.666666666662558 0  40 2.083333333329739 0  40 2.499999999996919 0  40 2.916666666664099 0  40 3.33333333333128 0  40 3.74999999999846 0  40 4.166666666665641 0  40 4.583333333332821 0  39.58333333333628 5 0  39.16666666667256 5 0  38.75000000000885 5 0  38.33333333334513 5 0  37.91666666668141 5 0  37.50000000001769 5 0  37.08333333335398 5 0  36.66666666669025 5 0  36.25000000002654 5 0  35.83333333336282 5 0  35.41666666669911 5 0  35.00000000003539 5 0  34.58333333337167 5 0  34.16666666670795 5 0  33.75000000004424 5 0  33.33333333338052 5 0  32.9166666667168 5 0  32.50000000005308 5 0  32.08333333338936 5 0  31.66666666671408 5 0  31.25000000003556 5 0  30.83333333335704 5 0  30.41666666667852 5 0  29.59259259259259 5 0  29.18518518518519 5 0  28.77777777777778 5 0  28.37037037037037 5 0  27.96296296296296 5 0  27.55555555555556 5 0  27.14814814814815 5 0  26.74074074074074 5 0  26.33333333333333 5 0  25.92592592592593 5 0  25.51851851851852 5 0  25.11111111111111 5 0  24.7037037037037 5 0  24.2962962962963 5 0  23.88888888888889 5 0  23.48148148148148 5 0  23.07407407407408 5 0  22.66666666666667 5 0  22.25925925925926 5 0  21.85185185185185 5 0  21.44444444444445 5 0  21.03703703703704 5 0  20.62962962962963 5 0  20.22222222222222 5 0  19.81481481481482 5 0  19.40740740740741 5 0  19 5 0  18.5925925925926 5 0  18.18518518518519 5 0  17.77777777777778 5 0  17.37037037037037 5 0  16.96296296296296 5 0  16.55555555555556 5 0  16.14814814814815 5 0  15.74074074074074 5 0  15.33333333333333 5 0  14.92592592592593 5 0  14.51851851851852 5 0  14.11111111111111 5 0  13.70370370370371 5 0  13.2962962962963 5 0  12.88888888888889 5 0  12.48148148148148 5 0  12.07407407407408 5 0  11.66666666666667 5 0  11.25925925925926 5 0  10.85185185185185 5 0  10.44444444444445 5 0  10.03703703703704 5 0  9.629629629629633 5 0  9.222222222222221 5 0  8.814814814814817 5 0  8.407407407407408 5 0  7.5789473684193 5 0  7.157894736838599 5 0  6.73684210526082 5 0  6.315789473684795 5 0  5.894736842108769 5 0  5.473684210532742 5 0  5.052631578956715 5 0  4.631578947380689 5 0  4.210526315804662 5 0  3.789473684226299 5 0  3.368421052645599 5 0  2.947368421064898 5 0  2.526315789484198 5 0  2.105263157903499 5 0  1.6842105263228 5 0  1.2631578947421 5 0  0.8421052631613994 5 0  0.4210526315806993 5 0  0 4.545454545454545 0  0 4.09090909090909 0  0 3.636363636363634 0  0 3.18181818181818 0  0 2.727272727272726 0  0 2.272727272727271 0  0 1.818181818181817 0  0 1.363636363636363 0  0 0.9090909090909092 0  0 0.454545454545455 0  0 -0.4545454545450807 0  0 -0.9090909090895867 0  0 -1.363636363633713 0  0 -1.818181818177841 0  0 -2.272727272723127 0  0 -2.727272727269273 0  0 -3.181818181815419 0  0 -3.636363636361564 0  0 -4.090909090907709 0  0 -4.545454545453855 0  8 -4.499999999999999 0  8 -3.999999999999999 0  8 -3.499999999999999 0  8 -3 0  8.137254901963859 -2.5 0  8.274509803926303 -2.5 0  8.411764705886863 -2.5 0  8.549019607849138 -2.5 0  8.686274509809513 -2.5 0  8.82352941176989 -2.5 0  8.960784313730265 -2.5 0  9.098039215690642 -2.5 0  9.235294117651017 -2.5 0  9.372549019611395 -2.5 0  9.50980392157177 -2.5 0  9.647058823532147 -2.5 0  9.784313725492522 -2.5 0  9.921568627452897 -2.5 0  10.05882352941327 -2.5 0  10.19607843137365 -2.5 0  10.33333333333402 -2.5 0  10.4705882352944 -2.5 0  10.60784313725478 -2.5 0  10.74509803921515 -2.5 0  10.88235294117553 -2.5 0  11.0196078431359 -2.5 0  11.15686274509628 -2.5 0  11.29411764705665 -2.5 0  11.43137254901703 -2.5 0  11.56862745097915 -2.5 0  11.70588235294301 -2.5 0  11.84313725490686 -2.5 0  11.98039215687072 -2.5 0  12.11764705883209 -2.5 0  12.25490196079247 -2.5 0  12.39215686275285 -2.5 0  12.52941176471322 -2.5 0  12.6666666666736 -2.5 0  12.80392156863397 -2.5 0  12.94117647059435 -2.5 0  13.07843137255473 -2.5 0  13.2156862745151 -2.5 0  13.35294117647548 -2.5 0  13.49019607843586 -2.5 0  13.62745098039623 -2.5 0  13.76470588235661 -2.5 0  13.90196078431699 -2.5 0  14.03921568627736 -2.5 0  14.17647058823774 -2.5 0  14.31372549019812 -2.5 0  14.45098039215849 -2.5 0  14.58823529411887 -2.5 0  14.72549019607925 -2.5 0  14.86274509803962 -2.5 0  15.20270270270254 -2.5 0  15.40540540540509 -2.5 0  15.60810810810763 -2.5 0  15.81081081081017 -2.5 0  16.01351351351227 -2.5 0  16.21621621621265 -2.5 0  16.41891891891279 -2.5 0  16.62162162161294 -2.5 0  16.82432432431308 -2.5 0  17.02702702701322 -2.5 0  17.22972972971337 -2.5 0  17.43243243241351 -2.5 0  17.63513513511365 -2.5 0  17.83783783781379 -2.5 0  18.04054054051394 -2.5 0  18.24324324321408 -2.5 0  18.44594594591422 -2.5 0  18.64864864861436 -2.5 0  18.85135135131451 -2.5 0  19.05405405401465 -2.5 0  19.25675675671479 -2.5 0  19.45945945941494 -2.5 0  19.66216216211508 -2.5 0  19.86486486481522 -2.5 0  20.06756756751536 -2.5 0  20.27027027021551 -2.5 0  20.47297297291565 -2.5 0  20.6756756756158 -2.5 0  20.87837837831594 -2.5 0  21.08108108101608 -2.5 0  21.28378378371622 -2.5 0  21.48648648641637 -2.5 0  21.68918918911651 -2.5 0  21.89189189181666 -2.5 0  22.0945945945168 -2.5 0  22.29729729721694 -2.5 0  22.49999999991778 -2.5 0  22.70270270262203 -2.5 0  22.90540540532697 -2.5 0  23.10810810803191 -2.5 0  23.31081081073686 -2.5 0  23.5135135134418 -2.5 0  23.71621621614674 -2.5 0  23.91891891885169 -2.5 0  24.12162162155663 -2.5 0  24.32432432426158 -2.5 0  24.52702702696652 -2.5 0  24.72972972967146 -2.5 0  24.93243243237641 -2.5 0  25.13513513508135 -2.5 0  25.3378378377863 -2.5 0  25.54054054049124 -2.5 0  25.74324324319618 -2.5 0  25.94594594590112 -2.5 0  26.14864864860607 -2.5 0  26.35135135131101 -2.5 0  26.55405405401596 -2.5 0  26.7567567567209 -2.5 0  26.95945945942584 -2.5 0  27.16216216213079 -2.5 0  27.36486486483573 -2.5 0  27.56756756754068 -2.5 0  27.77027027024562 -2.5 0  27.97297297295056 -2.5 0  28.1756756756555 -2.5 0  28.37837837836045 -2.5 0  28.5810810810654 -2.5 0  28.78378378377034 -2.5 0  28.98648648647528 -2.5 0  29.18918918918023 -2.5 0  29.39189189188517 -2.5 0  29.59459459459011 -2.5 0  29.79729729729506 -2.5 0  30 -3.000000000000001 0  30 -3.500000000000001 0  30 -4.000000000000001 0  30 -4.5 0  8 4.499999999999999 0  8 3.999999999999999 0  8 3.499999999999999 0  8 3 0  8.137254901963859 2.5 0  8.274509803926303 2.5 0  8.411764705886863 2.5 0  8.549019607849138 2.5 0  8.686274509809513 2.5 0  8.82352941176989 2.5 0  8.960784313730265 2.5 0  9.098039215690642 2.5 0  9.235294117651017 2.5 0  9.372549019611395 2.5 0  9.50980392157177 2.5 0  9.647058823532147 2.5 0  9.784313725492522 2.5 0  9.921568627452897 2.5 0  10.05882352941327 2.5 0  10.19607843137365 2.5 0  10.33333333333402 2.5 0  10.4705882352944 2.5 0  10.60784313725478 2.5 0  10.74509803921515 2.5 0  10.88235294117553 2.5 0  11.0196078431359 2.5 0  11.15686274509628 2.5 0  11.29411764705665 2.5 0  11.43137254901703 2.5 0  11.56862745097915 2.5 0  11.70588235294301 2.5 0  11.84313725490686 2.5 0  11.98039215687072 2.5 0  12.11764705883209 2.5 0  12.25490196079247 2.5 0  1
[...]
<PointData  Vectors="f_17"> 
<DataArray  type="Float64"  Name="f_17"  NumberOfComponents="3" format="ascii">1.0000001306418331e+00 0.0000000000000000e+00 0.0000000000000000e+00  1.0426567374353863e+00 0.0000000000000000e+00 0.0000000000000000e+00  1.0538649395683390e+00 0.0000000000000000e+00 0.0000000000000000e+00  1.0788131937130108e+00 0.0000000000000000e+00 0.0000000000000000e+00  1.0856283989499602e+00 0.0000000000000000e+00 0.0000000000000000e+00  1.0604753681739305e+00 0.0000000000000000e+00 0.0000000000000000e+00  1.0382141430922114e+00 0.0000000000000000e+00 0.0000000000000000e+00  1.0000001306418331e+00 0.0000000000000000e+00 0.0000000000000000e+00  1.0244173727677341e+00 -5.2473306364133276e-02 0.0000000000000000e+00  1.1191901791264514e+00 -3.9371142582329127e-02 0.0000000000000000e+00  1.0503971619182786e+00 -8.2986170000825088e-02 0.0000000000000000e+00  1.0746938670041508e+00 -7.4447043737384727e-02 0.0000000000000000e+00  1.0117235187215214e+00 -7.3529617999901487e-02 0.0000000000000000e+00  1.0183683143017730e+00 4.9128198002657157e-02 0.0000000000000000e+00  0.0000000000000000e+00 0.0000000000000000e+00 0.0000000000000000e+00  0.0000000000000000e+00 0.0000000000000000e+00 0.0000000000000000e+00  1.0000001306418331e+00 0.0000000000000000e+00 0.0000000000000000e+00  9.9929069930413783e-01 0.0000000000000000e+00 0.0000000000000000e+00  9.9873865144222895e-01 0.0000000000000000e+00 0.0000000000000000e+00  1.0008178789839552e+00 0.0000000000000000e+00 0.0000000000000000e+00  1.0006779388394984e+00 0.0000000000000000e+00 0.0000000000000000e+00  1.0017307409720515e+00 0.0000000000000000e+00 0.0000000000000000e+00  1.0021580411252007e+00 0.0000000000000000e+00 0.0000000000000000e+00  1.0025924881800408e+00 0.0000000000000000e+00 0.0000000000000000e+00  1.0035652861780426e+00 0.0000000000000000e+00 0.0000000000000000e+00  1.0049257855206615e+00 0.0000000000000000e+00 0.0000000000000000e+00  1.0061688360960812e+00 0.0000000000000000e+00 0.0000000000000000e+00  1.0077295031413964e+00 0.0000000000000000e+00 0.0000000000000000e+00  1.0100218785554675e+00 0.0000000000000000e+00 0.0000000000000000e+00  1.0124001663365161e+00 0.0000000000000000e+00 0.0000000000000000e+00  1.0163295993728370e+00 0.0000000000000000e+00 0.0000000000000000e+00  1.0180476481062266e+00 0.0000000000000000e+00 0.0000000000000000e+00  1.0225889697146484e+00 0.0000000000000000e+00 0.0000000000000000e+00  1.0293261081431329e+00 0.0000000000000000e+00 0.0000000000000000e+00  1.0347370979270230e+00 0.0000000000000000e+00 0.0000000000000000e+00  1.0505622793932401e+00 0.0000000000000000e+00 0.0000000000000000e+00  1.0587835947897282e+00 0.0000000000000000e+00 0.0000000000000000e+00  1.0662341207998438e+00 0.0000000000000000e+00 0.0000000000000000e+00  1.0738300932812492e+00 0.0000000000000000e+00 0.0000000000000000e+00  1.0795032942347653e+00 0.0000000000000000e+00 0.0000000000000000e+00  1.0839314020893351e+00 0.0000000000000000e+00 0.0000000000000000e+00  1.0873681437857283e+00 0.0000000000000000e+00 0.0000000000000000e+00  1.0877476557571559e+00 0.0000000000000000e+00 0.0000000000000000e+00  1.0869915603800728e+00 0.0000000000000000e+00 0.0000000000000000e+00  1.0847460278659165e+00 0.0000000000000000e+00 0.0000000000000000e+00  1.0822226067090608e+00 0.0000000000000000e+00 0.0000000000000000e+00  1.0787169322254877e+00 0.0000000000000000e+00 0.0000000000000000e+00  1.0768220325282927e+00 0.0000000000000000e+00 0.0000000000000000e+00  1.0756459920363457e+00 0.0000000000000000e+00 0.0000000000000000e+00  1.0750684574094511e+00 0.0000000000000000e+00 0.0000000000000000e+00  1.0752456629306917e+00 0.0000000000000000e+00 0.0000000000000000e+00  1.0750421165785171e+00 0.0000000000000000e+00 0.0000000000000000e+00  1.0739090532904303e+00 0.0000000000000000e+00 0.0000000000000000e+00  1.0708994756647410e+00 0.0000000000000000e+00 0.0000000000000000e+00  1.0658658516379569e+00 0.0000000000000000e+00 0.0000000000000000e+00  1.0604671633495648e+00 0.0000000000000000e+00 0.0000000000000000e+00  1.0546842284839153e+00 0.0000000000000000e+00 0.0000000000000000e+00  1.0477471631002628e+00 0.0000000000000000e+00 0.0000000000000000e+00  1.0428257082260108e+00 0.0000000000000000e+00 0.0000000000000000e+00  1.0396168500633824e+00 0.0000000000000000e+00 0.0000000000000000e+00  1.0388076050634056e+00 0.0000000000000000e+00 0.0000000000000000e+00  1.0409683247849875e+00 0.0000000000000000e+00 0.0000000000000000e+00  1.0448617491434360e+00 0.0000000000000000e+00 0.0000000000000000e+00  1.0500561207819312e+00 0.0000000000000000e+00 0.0000000000000000e+00  1.0558967463588882e+00 0.0000000000000000e+00 0.0000000000000000e+00  1.0598100747316697e+00 0.0000000000000000e+00 0.0000000000000000e+00  1.0616762301478182e+00 0.0000000000000000e+00 0.0000000000000000e+00  1.0625358324844831e+00 0.0000000000000000e+00 0.0000000000000000e+00  1.0600321713084675e+00 0.0000000000000000e+00 0.0000000000000000e+00  1.0556938067329791e+00 0.0000000000000000e+00 0.0000000000000000e+00  1.0516164635850573e+00 0.0000000000000000e+00 0.0000000000000000e+00  1.0471508699324743e+00 0.0000000000000000e+00 0.0000000000000000e+00  1.0438882614359182e+00 0.0000000000000000e+00 0.0000000000000000e+00  1.0441615058737828e+00 0.0000000000000000e+00 0.0000000000000000e+00  1.0455730903304774e+00 0.0000000000000000e+00 0.0000000000000000e+00  1.0487733322969630e+00 0.0000000000000000e+00 0.0000000000000000e+00  1.0539523651435772e+00 0.0000000000000000e+00 0.0000000000000000e+00  1.0585594581710158e+00 0.0000000000000000e+00 0.0000000000000000e+00  1.0622162375969313e+00 0.0000000000000000e+00 0.0000000000000000e+00  1.0648061260211079e+00 0.0000000000000000e+00 0.0000000000000000e+00  1.0643554951060117e+00 0.0000000000000000e+00 0.0000000000000000e+00  1.0615560445975050e+00 0.0000000000000000e+00 0.0000000000000000e+00  1.0598110684490822e+00 0.0000000000000000e+00 0.0000000000000000e+00  1.0556652528001735e+00 0.0000000000000000e+00 0.0000000000000000e+00  1.0503635965434854e+00 0.0000000000000000e+00 0.0000000000000000e+00  1.0476540303116972e+00 0.0000000000000000e+00 0.0000000000000000e+00  1.0483918887189874e+00 0.0000000000000000e+00 0.0000000000000000e+00  1.0502025026155437e+00 0.0000000000000000e+00 0.0000000000000000e+00  1.0581235030205596e+00 0.0000000000000000e+00 0.0000000000000000e+00  1.0613441629070068e+00 0.0000000000000000e+00 0.0000000000000000e+00  1.0634766203961505e+00 0.0000000000000000e+00 0.0000000000000000e+00  1.0648384618475288e+00 0.0000000000000000e+00 0.0000000000000000e+00  1.0640501837029885e+00 0.0000000000000000e+00 0.0000000000000000e+00  1.0613226799091122e+00 0.0000000000000000e+00 0.0000000000000000e+00  1.0575270326348605e+00 0.0000000000000000e+00 0.0000000000000000e+00  1.0542831123341567e+00 0.0000000000000000e+00 0.0000000000000000e+00  1.0519898769045695e+00 0.0000000000000000e+00 0.0000000000000000e+00  1.0511005915904097e+00 0.0000000000000000e+00 0.0000000000000000e+00  1.0526641710497318e+00 0.0000000000000000e+00 0.0000000000000000e+00  1.0559203967053128e+00 0.0000000000000000e+00 0.0000000000000000e+00  1.0598839609005990e+00 0.0000000000000000e+00 0.0000000000000000e+00  1.0645399758241976e+00 0.0000000000000000e+00 0.0000000000000000e+00  1.0682824650564728e+00 0.0000000000000000e+00 0.0000000000000000e+00  1.0711183722511128e+00 0.0000000000000000e+00 0.0000000000000000e+00  1.0712242907847163e+00 0.0000000000000000e+00 0.0000000000000000e+00  1.0704655050650798e+00 0.0000000000000000e+00 0.0000000000000000e+00  1.0685905024592908e+00 0.0000000000000000e+00 0.0000000000000000e+00  1.0675090401110070e+00 0.0000000000000000e+00 0.0000000000000000e+00  1.0668667175191355e+00 0.0000000000000000e+00 0.0000000000000000e+00  1.0688676442169529e+00 0.0000000000000000e+00 0.0000000000000000e+00  1.0723162911179387e+00 0.0000000000000000e+00 0.0000000000000000e+00  1.0786261873705216e+00 -7.3660463206447098e-03 0.0000000000000000e+00  1.0769634540776474e+00 -1.5901330496016781e-02 0.0000000000000000e+00  1.0730636088582153e+00 -2.6642776560487285e-02 0.0000000000000000e+00  1.0631800004693848e+00 -4.0723433314452252e-02 0.0000000000000000e+00  1.0470439538929515e+00 -6.2064893942955300e-02 0.0000000000000000e+00  1.0234464952425668e+00 -9.2319916711735894e-02 0.0000000000000000e+00  9.9158598176645318e-01 -1.4156829520397293e-01 0.0000000000000000e+00  9.4209868408607822e-01 -1.9176285137640922e-01 0.0000000000000000e+00  8.7026368912967245e-01 -2.3220612599200482e-01 0.0000000000000000e+00  7.9484986077313768e-01 -2.5588988580923039e-01 0.0000000000000000e+00  7.4228843131294886e-01 -2.6475024966931776e-01 0.0000000000000000e+00  7.3296995034976553e-01 -2.6579863125055092e-01 0.0000000000000000e+00  7.7500508330326467e-01 -2.6238933024722438e-01 0.0000000000000000e+00  8.6656838846665396e-01 -2.4779837524503992e-01 0.0000000000000000e+00  9.8101707838143093e-01 -2.1385770375522872e-01 0.0000000000000000e+00  1.0780831347391497e+00 -1.5945293386830967e-01 0.0000000000000000e+00  1.1284076983997988e+00 -1.0657064173941519e-01 0.0000000000000000e+00  1.1382145682274087e+00 -6.0278549121281257e-02 0.0000000000000000e+00  1.1239201179483385e+00 -3.2651930238755275e-02 0.0000000000000000e+00  1.1072821707705094e+00 -1.5084952355362141e-02 0.0000000000000000e+00  1.0961413986036070e+00 -6.4609979435255906e-03 0.0000000000000000e+00  1.0907225249546335e+00 -2.5547858277724486e-03 0.0000000000000000e+00  1.0871979107442364e+00 -9.2110957869720651e-04 0.0000000000000000e+00  1.0853912145842659e+00 0.0000000000000000e+00 0.0000000000000000e+00  1.0834859166502155e+00 0.0000000000000000e+00 0.0000000000000000e+00  1.0796200047644753e+00 0.0000000000000000e+00 0.0000000000000000e+00  1.0745638140978802e+00 0.0000000000000000e+00 0.0000000000000000e+00  1.0682749811028232e+00 0.0000000000000000e+00 0.0000000000000000e+00  1.0629968791785489e+00 0.0000000000000000e+00 0.0000000000000000e+00  1.0592234378976004e+00 0.0000000000000000e+00 0.0000000000000000e+00  1.0576981811146002e+00 0.0000000000000000e+00 0.0000000000000000e+00  1.0576699175659208e+00 0.0000000000000000e+00 0.0000000000000000e+00  1.0596870478717564e+00 0.0000000000000000e+00 0.0000000000000000e+00  1.0625806568630132e+00 0.0000000000000000e+00 0.0000000000000000e+00  1.0653219627449870e+00 0.0000000000000000e+00 0.0000000000000000e+00  1.0671593012248777e+00 0.0000000000000000e+00 0.0000000000000000e+00  1.0680768934154261e+00 0.0000000000000000e+00 0.0000000000000000e+00  1.0662768942125056e+00 0.0000000000000000e+00 0.0000000000000000e+00  1.0638857483480160e+00 0.0000000000000000e+00 0.0000000000000000e+00  1.0591411857753026e+00 0.0000000000000000e+00 0.0000000000000000e+00  1.0548807892493830e+00 0.0000000000000000e+00 0.0000000000000000e+00  1.0513860518426656e+00 0.0000000000000000e+00 0.0000000000000000e+00  1.0501061092296646e+00 0.0000000000000000e+00 0.0000000000000000e+00  1.0505988514237179e+00 0.0000000000000000e+00 0.0000000000000000e+00  1.0527054913993990e+00 0.0000000000000000e+00 0.0000000000000000e+00  1.0565023928142816e+00 0.0000000000000000e+00 0.0000000000000000e+00  1.0628451784353699e+00 0.0000000000000000e+00 0.0000000000000000e+00  1.0644561848141898e+00 0.0000000000000000e+00 0.0000000000000000e+00  1.0629885919434581e+00 0.0000000000000000e+00 0.0000000000000000e+00  1.0611051776515406e+00 0.0000000000000000e+00 0.0000000000000000e+00  1.0586575922085208e+00 0.0000000000000000e+00 0.0000000000000000e+00  1.0545962947819179e+00 0.0000000000000000e+00 0.0000000000000000e+00  1.0490550172744193e+00 0.0000000000000000e+00 0.0000000000000000e+00  1.0471938589737750e+00 0.0000000000000000e+00 0.0000000000000000e+00  1.0470839718681302e+00 0.0000000000000000e+00 0.0000000000000000e+00  1.0481201148192032e+00 0.0000000000000000e+00 0.0000000000000000e+00  1.0514298625420102e+00 0.0000000000000000e+00 0.0000000000000000e+00  1.0556850480368891e+00 0.0000000000000000e+00 0.0000000000000000e+00  1.0591657405730337e+00 0.0000000000000000e+00 0.0000000000000000e+00  1.0622657566961062e+00 0.0000000000000000e+00 0.0000000000000000e+00  1.0632159150201159e+00 0.0000000000000000e+00 0.0000000000000000e+00  1.0610151487336938e+00 0.0000000000000000e+00 0.0000000000000000e+00  1.0578496262588855e+00 0.0000000000000000e+00 0.0000000000000000e+00  1.0531613021196782e+00 0.0000000000000000e+00 0.0000000000000000e+00  1.0471282627477250e+00 0.0000000000000000e+00 0.0000000000000000e+00  1.0428927353095248e+00 0.0000000000000000e+00 0.0000000000000000e+00  1.0401647883581715e+00 0.0000000000000000e+00 0.0000000000000000e+00  1.0386205443583669e+00 0.0000000000000000e+00 0.0000000000000000e+00  1.0410023357239233e+00 0.0000000000000000e+00 0.0000000000000000e+00  1.0452495903034806e+00 0.0000000000000000e+00 0.0000000000000000e+00  1.0500316716663827e+00 0.0000000000000000e+00 0.0000000000000000e+00  1.0553981534068742e+00 0.0000000000000000e+00 0.0000000000000000e+00  1.0600127747507546e+00 0.0000000000000000e+00 0.0000000000000000e+00  1.0624457176206117e+00 0.0000000000000000e+00 0.0000000000000000e+00  1.0630863775334876e+00 0.0000000000000000e+00 0.0000000000000000e+00  1.0615048652808627e+00 0.0000000000000000e+00 0.0000000000000000e+00  1.0581301777354684e+00 0.0000000000000000e+00 0.0000000000000000e+00  1.0548751154791580e+00 0.0000000000000000e+00 0.0000000000000000e+00  1.0510457772392610e+00 0.0000000000000000e+00 0.0000000000000000e+00  1.0490973376515422e+00 0.0000000000000000e+00 0.0000000000000000e+00  1.0501368841120642e+00 0.0000000000000000e+00 0.0000000000000000e+00  1.0534428589427489e+00 0.0000000000000000e+00 0.0000000000000000e+00  1.0583878149511405e+00 0.0000000000000000e+00 0.0000000000000000e+00  1.0645786033248619e+00 0.0000000000000000e+00 0.0000000000000000e+00  1.0719608552959188e+00 0.0000000000000000e+00 0.0000000000000000e+00  1.0801280769652959e+00 0.0000000000000000e+00 0.0000000000000000e+00  1.0868212421007926e+00 0.0000000000000000e+00 0.0000000000000000e+00  1.0918852119731413e+00 0.0000000000000000e+00 0.0000000000000000e+00  1.0966438914129943e+00 0.0000000000000000e+00 0.0000000000000000e+00  1.0977406209568277e+00 0.0000000000000000e+00 0.0000000000000000e+00  1.0977637993963694e+00 0.0000000000000000e+00 0.0000000000000000e+00  1.0954995933402045e+00 0.0000000000000000e+00 0.0000000000000000e+00  1.0909244563092195e+00 0.0000000000000000e+00 0.0000000000000000e+00  1.0850150197623378e+00 0.0000000000000000e+00 0.0000000000000000e+00  1.0782568630544000e+00 0.0000000000000000e+00 0.0000000000000000e+00  1.0707369889064167e+00 0.0000000000000000e+00 0.0000000000000000e+00  1.0620428435186409e+00 0.0000000000000000e+00 0.0000000000000000e+00  1.0542610510567791e+00 0.0000000000000000e+00 0.0000000000000000e+00  1.0460024467463778e+00 0.0000000000000000e+00 0.0000000000000000e+00  1.0307537496338448e+00 0.0000000000000000e+00 0.0000000000000000e+00  1.0243039768549307e+00 0.0000000000000000e+00 0.0000000000000000e+00  1.0192219363084145e+00 0.0000000000000000e+00 0.0000000000000000e+00  1.0146737088486482e+00 0.0000000000000000e+00 0.0000000000000000e+00  1.0109687132381779e+00 0.0000000000000000e+00 0.0000000000000000e+00  1.0080649653513256e+00 0.0000000000000000e+00 0.0000000000000000e+00  1.0059007829767157e+00 0.0000000000000000e+00 0.0000000000000000e+00  1.0038248939990282e+00 0.0000000000000000e+00 0.0000000000000000e+00  1.0024706141768533e+00 0.0000000000000000e+00 0.0000000000000000e+00  1.0016059180239716e+00 0.0000000000000000e+00 0.0000000000000000e+00  1.0006157416191330e+00 0.0000000000000000e+00 0.0000000000000000e+00  1.0006552348699711e+00 0.0000000000000000e+00 0.0000000000000000e+00  9.9979753910044444e-01 0.0000000000000000e+00 0.0000000000000000e+00  9.9994785361764094e-01 0.0000000000000000e+00 0.0000000000000000e+00  9.9967169409141654e-01 0.0000000000000000e+00 0.0000000000000000e+00  1.0004440613731778e+00 0.0000000000000000e+00 0.0000000000000000e+00  1.0002397193355335e+00 0.0000000000000000e+00 0.0000000000000000e+00  9.9979765264285225e-01 0.0000000000000000e+00 0.0000000000000000e+00  1.0000001306418331e+00 0.0000000000000000e+00 0.0000000000000000e+00  1.0000001306418331e+00 0.0000000000000000e+00 0.0000000000000000e+00  1.0000001306418331e+00 0.0000000000000000e+00 0.0000000000000000e+00  1.0000001306418331e+00 0.0000000000000000e+00 0.0000000000000000e+00  1.0000001306418331e+00 0.0000000000000000e+00 0.0000000000000000e+00  1.0000001306418331e+00 0.0000000000000000e+00 0.0000000000000000e+00  1.0000001306418331e+00 0.0000000000000000e+00 0.0000000000000000e+00  1.0000001306418331e+00 0.0000000000000000e+00 0.0000000000000000e+00  1.0000001306418331e+00 0.0000000000000000e+00 0.0000000000000000e+00  1.0000001306418331e+00 0.0000000000000000e+00 0.0000000000000000e+00  1.0000001306418331e+00 0.0000000000000000e+00 0.0000000000000000e+00  1.0000001306418331e+00 0.0000000000000000e+00 0.0000000000000000e+00  1.0000001306418331e+00 0.0000000000000000e+00 0.0000000000000000e+00  1.0000001306418331e+00 0.0000000000000000e+00 0.0000000000000000e+00  1.0000001306418331e+00 0.0000000000000000e+00 0.0000000000000000e+00  1.0000001306418331e+00 0.0000000000000000e+00 0.0000000000000000e+00  1.0000001306418331e+00 0.0000000000000000e+00 0.0000000000000000e+00  1.0000001306418331e+00 0.0000000000000000e+00 0.0000000000000000e+00  1.0000001306418331e+00 0.0000000000000000e+00 0.0000000000000000e+00  1.0000001306418331e+00 0.0000000000000000e+00 0.0000000000000000e+00  1.0421413425766390e+00 -9.3283029901377983e-03 0.0000000000000000e+00  1.0394228068839610e+00 -1.8912774926834134e-02 0.0000000000000000e+00  1.0376211378824369e+00 -2.9441012331571034e-02 0.0000000000000000e+00  1.0324385546398147e+00 -4.0668986190046136e-02 0.0000000000000000e+00  1.0273437440329010e+00 -5.6098916273812797e-02 0.0000000000000000e+00  1.0320445496276516e+00 -5.9327392563863414e-02 0.0000000000000000e+00  1.0363605628040484e+00 -6.2580363263802924e-02 0.0000000000000000e+00  1.0417117954632742e+00 -6.5468916871261981e-02 0.0000000000000000e+00  1.0473271489919893e+00 -6.8140248569678138e-02 0.0000000000000000e+00  1.0535700018270464e+00 -7.0317758239928752e-02 0.0000000000000000e+00  1.0603798567711025e+00 -7.2053474880936691e-02 0.0000000000000000e+00  1.0676148083857278e+00 -7.3031933338802382e-02 0.0000000000000000e+00  1.0753288061533275e+00 -7.3358344358879779e-02 0.0000000000000000e+00  1.0831154143494719e+00 -7.2685587652543751e-02 0.0000000000000000e+00  1.0911641583851872e+00 -7.1246145326522903e-02 0.0000000000000000e+00  1.0991600093666876e+00 -6.8911635507542243e-02 0.0000000000000000e+00  1.1071304767771211e+00 -6.5374135367365790e-02 0.0000000000000000e+00  1.1145844970212744e+00 -6.0767439333251572e-02 0.0000000000000000e+00  1.1215730114728544e+00 -5.5334063961111180e-02 0.0000000000000000e+00  1.1279172295934876e+00 -4.8972692932808565e-02 0.0000000000000000e+00  1.1333439975490085e+00 -4.1738156049978513e-02 0.0000000000000000e+00  1.1378370247195599e+00 -3.3827390162961317e-02 0.0000000000000000e+00  1.1412267433286982e+00 -2.5402503251435799e-02 0.0000000000000000e+00  1.1434808459366845e+00 -1.6379170755704917e-02 0.0000000000000000e+00  1.1445049924522825e+00 -7.3625484369521932e-03 0.0000000000000000e+00  1.1442713272488427e+00 1.9386531947894184e-03 0.0000000000000000e+00  1.1425665665638007e+00 1.1199973483440144e-02 0.0000000000000000e+00  1.1397447896491812e+00 2.0044608651902364e-02 0.0000000000000000e+00  1.1354760576977216e+00 2.8334943613983546e-02 0.0000000000000000e+00  1.1300372212823326e+00 3.5946985124557879e-02 0.0000000000000000e+00  1.1234388727469629e+00 4.2671774273771328e-02 0.0000000000000000e+00  1.1158274111494029e+00 4.8150112623698789e-02 0.0000000000000000e+00  1.1073920966770092e+00 5.2467172147729974e-02 0.0000000000000000e+00  1.0983073697469830e+00 5.5467812127937298e-02 0.0000000000000000e+00  1.0889093678258239e+00 5.6851467049128107e-02 0.0000000000000000e+00  1.0793384761511173e+00 5.6702