<?xml version="1.0"?>
<VTKFile type="UnstructuredGrid"  version="0.1"  >
<UnstructuredGrid>
<Piece  NumberOfPoints="10199" NumberOfCells="20110">
<Points>
<DataArray  type="Float64"  NumberOfComponents="3"  format="ascii">0 -5 0  8 -5 0  30 -5 0  40 -5 0  40 5 0  30 5 0  8 5 0  0 5 0  8 -2.5 0  15 -2.5 0  30 -2.5 0  30 2.5 0  15 2.5 0  8 2.5 0  10 0.5 0  10 -0.5 0  0 0 0  0.4210526315780956 -5 0  0.8421052631563433 -5 0  1.263157894734281 -5 0  1.684210526311999 -5 0  2.105263157889717 -5 0  2.526315789467435 -5 0  2.947368421045153 -5 0  3.368421052622872 -5 0  3.78947368420059 -5 0  4.210526315779479 -5 0  4.631578947359537 -5 0  5.052631578939595 -5 0  5.473684210519653 -5 0  5.89473684209971 -5 0  6.315789473679768 -5 0  6.736842105259826 -5 0  7.157894736839884 -5 0  7.578947368419942 -5 0  8.407407407405314 -5 0  8.814814814810628 -5 0  9.222222222215942 -5 0  9.629629629621256 -5 0  10.03703703702657 -5 0  10.44444444443188 -5 0  10.8518518518372 -5 0  11.25925925924251 -5 0  11.66666666664783 -5 0  12.07407407405314 -5 0  12.48148148145846 -5 0  12.88888888886377 -5 0  13.29629629626908 -5 0  13.7037037036744 -5 0  14.11111111107971 -5 0  14.51851851848502 -5 0  14.92592592589034 -5 0  15.33333333329565 -5 0  15.74074074070096 -5 0  16.14814814810754 -5 0  16.55555555551614 -5 0  16.96296296292474 -5 0  17.37037037033335 -5 0  17.77777777774195 -5 0  18.18518518515056 -5 0  18.59259259255916 -5 0  18.99999999996776 -5 0  19.40740740737636 -5 0  19.81481481478497 -5 0  20.22222222219357 -5 0  20.62962962960217 -5 0  21.03703703701077 -5 0  21.44444444441937 -5 0  21.85185185182797 -5 0  22.25925925923657 -5 0  22.66666666664518 -5 0  23.07407407405378 -5 0  23.48148148146238 -5 0  23.88888888887098 -5 0  24.29629629627958 -5 0  24.70370370368818 -5 0  25.11111111109678 -5 0  25.51851851850539 -5 0  25.92592592591399 -5 0  26.33333333332259 -5 0  26.74074074073119 -5 0  27.14814814813979 -5 0  27.55555555554839 -5 0  27.96296296295699 -5 0  28.3703703703656 -5 0  28.7777777777742 -5 0  29.1851851851828 -5 0  29.5925925925914 -5 0  30.41666666667852 -5 0  30.83333333335704 -5 0  31.25000000003556 -5 0  31.66666666671408 -5 0  32.08333333338936 -5 0  32.50000000005308 -5 0  32.9166666667168 -5 0  33.33333333338052 -5 0  33.75000000004424 -5 0  34.16666666670795 -5 0  34.58333333337167 -5 0  35.00000000003539 -5 0  35.41666666669911 -5 0  35.83333333336282 -5 0  36.25000000002654 -5 0  36.66666666669026 -5 0  37.08333333335398 -5 0  37.50000000001769 -5 0  37.91666666668141 -5 0  38.33333333334513 -5 0  38.75000000000885 -5 0  39.16666666667257 -5 0  39.58333333333628 -5 0  40 -4.583333333332821 0  40 -4.166666666665642 0  40 -3.74999999999855 0  40 -3.333333333333135 0  40 -2.916666666667806 0  40 -2.500000000002478 0  40 -2.083333333337148 0  40 -1.666666666671818 0  40 -1.250000000006488 0  40 -0.8333333333405228 0  40 -0.4166666666733416 0  40 -6.163070054299169e-12 0  40 0.4166666666610173 0  40 0.8333333333281976 0  40 1.249999999995378 0  40 1.666666666662558 0  40 2.083333333329739 0  40 2.499999999996919 0  40 2.916666666664099 0  40 3.33333333333128 0  40 3.74999999999846 0  40 4.166666666665641 0  40 4.583333333332821 0  39.58333333333628 5 0  39.16666666667256 5 0  38.75000000000885 5 0  38.33333333334513 5 0  37.91666666668141 5 0  37.50000000001769 5 0  37.08333333335398 5 0  36.66666666669025 5 0  36.25000000002654 5 0  35.83333333336282 5 0  35.41666666669911 5 0  35.00000000003539 5 0  34.58333333337167 5 0  34.16666666670795 5 0  33.75000000004424 5 0  33.33333333338052 5 0  32.9166666667168 5 0  32.50000000005308 5 0  32.08333333338936 5 0  31.66666666671408 5 0  31.25000000003556 5 0  30.83333333335704 5 0  30.41666666667852 5 0  29.59259259259259 5 0  29.18518518518519 5 0  28.77777777777778 5 0  28.37037037037037 5 0  27.96296296296296 5 0  27.55555555555556 5 0  27.14814814814815 5 0  26.74074074074074 5 0  26.33333333333333 5 0  25.92592592592593 5 0  25.51851851851852 5 0  25.11111111111111 5 0  24.7037037037037 5 0  24.2962962962963 5 0  23.88888888888889 5 0  23.48148148148148 5 0  23.07407407407408 5 0  22.66666666666667 5 0  22.25925925925926 5 0  21.85185185185185 5 0  21.44444444444445 5 0  21.03703703703704 5 0  20.62962962962963 5 0  20.22222222222222 5 0  19.81481481481482 5 0  19.40740740740741 5 0  19 5 0  18.5925925925926 5 0  18.18518518518519 5 0  17.77777777777778 5 0  17.37037037037037 5 0  16.96296296296296 5 0  16.55555555555556 5 0  16.14814814814815 5 0  15.74074074074074 5 0  15.33333333333333 5 0  14.92592592592593 5 0  14.51851851851852 5 0  14.11111111111111 5 0  13.70370370370371 5 0  13.2962962962963 5 0  12.88888888888889 5 0  12.48148148148148 5 0  12.07407407407408 5 0  11.66666666666667 5 0  11.25925925925926 5 0  10.85185185185185 5 0  10.44444444444445 5 0  10.03703703703704 5 0  9.629629629629633 5 0  9.222222222222221 5 0  8.814814814814817 5 0  8.407407407407408 5 0  7.5789473684193 5 0  7.157894736838599 5 0  6.73684210526082 5 0  6.315789473684795 5 0  5.894736842108769 5 0  5.473684210532742 5 0  5.052631578956715 5 0  4.631578947380689 5 0  4.210526315804662 5 0  3.789473684226299 5 0  3.368421052645599 5 0  2.947368421064898 5 0  2.526315789484198 5 0  2.105263157903499 5 0  1.6842105263228 5 0  1.2631578947421 5 0  0.8421052631613994 5 0  0.4210526315806993 5 0  0 4.545454545454545 0  0 4.09090909090909 0  0 3.636363636363634 0  0 3.18181818181818 0  0 2.727272727272726 0  0 2.272727272727271 0  0 1.818181818181817 0  0 1.363636363636363 0  0 0.9090909090909092 0  0 0.454545454545455 0  0 -0.4545454545450807 0  0 -0.9090909090895867 0  0 -1.363636363633713 0  0 -1.818181818177841 0  0 -2.272727272723127 0  0 -2.727272727269273 0  0 -3.181818181815419 0  0 -3.636363636361564 0  0 -4.090909090907709 0  0 -4.545454545453855 0  8 -4.499999999999999 0  8 -3.999999999999999 0  8 -3.499999999999999 0  8 -3 0  8.137254901963859 -2.5 0  8.274509803926303 -2.5 0  8.411764705886863 -2.5 0  8.549019607849138 -2.5 0  8.686274509809513 -2.5 0  8.82352941176989 -2.5 0  8.960784313730265 -2.5 0  9.098039215690642 -2.5 0  9.235294117651017 -2.5 0  9.372549019611395 -2.5 0  9.50980392157177 -2.5 0  9.647058823532147 -2.5 0  9.784313725492522 -2.5 0  9.921568627452897 -2.5 0  10.05882352941327 -2.5 0  10.19607843137365 -2.5 0  10.33333333333402 -2.5 0  10.4705882352944 -2.5 0  10.60784313725478 -2.5 0  10.74509803921515 -2.5 0  10.88235294117553 -2.5 0  11.0196078431359 -2.5 0  11.15686274509628 -2.5 0  11.29411764705665 -2.5 0  11.43137254901703 -2.5 0  11.56862745097915 -2.5 0  11.70588235294301 -2.5 0  11.84313725490686 -2.5 0  11.98039215687072 -2.5 0  12.11764705883209 -2.5 0  12.25490196079247 -2.5 0  12.39215686275285 -2.5 0  12.52941176471322 -2.5 0  12.6666666666736 -2.5 0  12.80392156863397 -2.5 0  12.94117647059435 -2.5 0  13.07843137255473 -2.5 0  13.2156862745151 -2.5 0  13.35294117647548 -2.5 0  13.49019607843586 -2.5 0  13.62745098039623 -2.5 0  13.76470588235661 -2.5 0  13.90196078431699 -2.5 0  14.03921568627736 -2.5 0  14.17647058823774 -2.5 0  14.31372549019812 -2.5 0  14.45098039215849 -2.5 0  14.58823529411887 -2.5 0  14.72549019607925 -2.5 0  14.86274509803962 -2.5 0  15.20270270270254 -2.5 0  15.40540540540509 -2.5 0  15.60810810810763 -2.5 0  15.81081081081017 -2.5 0  16.01351351351227 -2.5 0  16.21621621621265 -2.5 0  16.41891891891279 -2.5 0  16.62162162161294 -2.5 0  16.82432432431308 -2.5 0  17.02702702701322 -2.5 0  17.22972972971337 -2.5 0  17.43243243241351 -2.5 0  17.63513513511365 -2.5 0  17.83783783781379 -2.5 0  18.04054054051394 -2.5 0  18.24324324321408 -2.5 0  18.44594594591422 -2.5 0  18.64864864861436 -2.5 0  18.85135135131451 -2.5 0  19.05405405401465 -2.5 0  19.25675675671479 -2.5 0  19.45945945941494 -2.5 0  19.66216216211508 -2.5 0  19.86486486481522 -2.5 0  20.06756756751536 -2.5 0  20.27027027021551 -2.5 0  20.47297297291565 -2.5 0  20.6756756756158 -2.5 0  20.87837837831594 -2.5 0  21.08108108101608 -2.5 0  21.28378378371622 -2.5 0  21.48648648641637 -2.5 0  21.68918918911651 -2.5 0  21.89189189181666 -2.5 0  22.0945945945168 -2.5 0  22.29729729721694 -2.5 0  22.49999999991778 -2.5 0  22.70270270262203 -2.5 0  22.90540540532697 -2.5 0  23.10810810803191 -2.5 0  23.31081081073686 -2.5 0  23.5135135134418 -2.5 0  23.71621621614674 -2.5 0  23.91891891885169 -2.5 0  24.12162162155663 -2.5 0  24.32432432426158 -2.5 0  24.52702702696652 -2.5 0  24.72972972967146 -2.5 0  24.93243243237641 -2.5 0  25.13513513508135 -2.5 0  25.3378378377863 -2.5 0  25.54054054049124 -2.5 0  25.74324324319618 -2.5 0  25.94594594590112 -2.5 0  26.14864864860607 -2.5 0  26.35135135131101 -2.5 0  26.55405405401596 -2.5 0  26.7567567567209 -2.5 0  26.95945945942584 -2.5 0  27.16216216213079 -2.5 0  27.36486486483573 -2.5 0  27.56756756754068 -2.5 0  27.77027027024562 -2.5 0  27.97297297295056 -2.5 0  28.1756756756555 -2.5 0  28.37837837836045 -2.5 0  28.5810810810654 -2.5 0  28.78378378377034 -2.5 0  28.98648648647528 -2.5 0  29.18918918918023 -2.5 0  29.39189189188517 -2.5 0  29.59459459459011 -2.5 0  29.79729729729506 -2.5 0  30 -3.000000000000001 0  30 -3.500000000000001 0  30 -4.000000000000001 0  30 -4.5 0  8 4.499999999999999 0  8 3.999999999999999 0  8 3.499999999999999 0  8 3 0  8.137254901963859 2.5 0  8.274509803926303 2.5 0  8.411764705886863 2.5 0  8.549019607849138 2.5 0  8.686274509809513 2.5 0  8.82352941176989 2.5 0  8.960784313730265 2.5 0  9.098039215690642 2.5 0  9.235294117651017 2.5 0  9.372549019611395 2.5 0  9.50980392157177 2.5 0  9.647058823532147 2.5 0  9.784313725492522 2.5 0  9.921568627452897 2.5 0  10.05882352941327 2.5 0  10.19607843137365 2.5 0  10.33333333333402 2.5 0  10.4705882352944 2.5 0  10.60784313725478 2.5 0  10.74509803921515 2.5 0  10.88235294117553 2.5 0  11.0196078431359 2.5 0  11.15686274509628 2.5 0  11.29411764705665 2.5 0  11.43137254901703 2.5 0  11.56862745097915 2.5 0  11.70588235294301 2.5 0  11.84313725490686 2.5 0  11.98039215687072 2.5 0  12.11764705883209 2.5 0  12.25490196079247 2.5 0  1
[...]
<PointData  Vectors="f_17"> 
<DataArray  type="Float64"  Name="f_17"  NumberOfComponents="3" format="ascii">1.0000001300239620e+00 0.0000000000000000e+00 0.0000000000000000e+00  1.0407967950957664e+00 0.0000000000000000e+00 0.0000000000000000e+00  1.0497312858761871e+00 0.0000000000000000e+00 0.0000000000000000e+00  1.0731045053053372e+00 0.0000000000000000e+00 0.0000000000000000e+00  1.0940422108522636e+00 0.0000000000000000e+00 0.0000000000000000e+00  1.0647684557670836e+00 0.0000000000000000e+00 0.0000000000000000e+00  1.0400936794823341e+00 0.0000000000000000e+00 0.0000000000000000e+00  1.0000001300239620e+00 0.0000000000000000e+00 0.0000000000000000e+00  1.0193154390669992e+00 -5.1674541065608218e-02 0.0000000000000000e+00  1.0096003431941523e+00 -3.9932126248907802e-02 0.0000000000000000e+00  9.8649206056415284e-01 7.7348888874849879e-03 0.0000000000000000e+00  1.1542432372865814e+00 3.7781591573188625e-03 0.0000000000000000e+00  1.0926370570445987e+00 -8.4386252139612095e-02 0.0000000000000000e+00  1.0234926229084993e+00 4.9962215854740796e-02 0.0000000000000000e+00  0.0000000000000000e+00 0.0000000000000000e+00 0.0000000000000000e+00  0.0000000000000000e+00 0.0000000000000000e+00 0.0000000000000000e+00  1.0000001300239620e+00 0.0000000000000000e+00 0.0000000000000000e+00  9.9927409757830943e-01 0.0000000000000000e+00 0.0000000000000000e+00  9.9864800446233482e-01 0.0000000000000000e+00 0.0000000000000000e+00  1.0006408330246395e+00 0.0000000000000000e+00 0.0000000000000000e+00  1.0003466684451174e+00 0.0000000000000000e+00 0.0000000000000000e+00  1.0012100005386280e+00 0.0000000000000000e+00 0.0000000000000000e+00  1.0014182894065189e+00 0.0000000000000000e+00 0.0000000000000000e+00  1.0016395472973825e+00 0.0000000000000000e+00 0.0000000000000000e+00  1.0024261738941200e+00 0.0000000000000000e+00 0.0000000000000000e+00  1.0036090678942930e+00 0.0000000000000000e+00 0.0000000000000000e+00  1.0047378976812176e+00 0.0000000000000000e+00 0.0000000000000000e+00  1.0061777708495048e+00 0.0000000000000000e+00 0.0000000000000000e+00  1.0084098071857186e+00 0.0000000000000000e+00 0.0000000000000000e+00  1.0107083118926985e+00 0.0000000000000000e+00 0.0000000000000000e+00  1.0145454229577420e+00 0.0000000000000000e+00 0.0000000000000000e+00  1.0161782157658035e+00 0.0000000000000000e+00 0.0000000000000000e+00  1.0206265081113290e+00 0.0000000000000000e+00 0.0000000000000000e+00  1.0273067983317674e+00 0.0000000000000000e+00 0.0000000000000000e+00  1.0327263649345704e+00 0.0000000000000000e+00 0.0000000000000000e+00  1.0490296290903898e+00 0.0000000000000000e+00 0.0000000000000000e+00  1.0578140718671936e+00 0.0000000000000000e+00 0.0000000000000000e+00  1.0661311113209571e+00 0.0000000000000000e+00 0.0000000000000000e+00  1.0749390381963615e+00 0.0000000000000000e+00 0.0000000000000000e+00  1.0820613834097472e+00 0.0000000000000000e+00 0.0000000000000000e+00  1.0881244388747993e+00 0.0000000000000000e+00 0.0000000000000000e+00  1.0931314053678050e+00 0.0000000000000000e+00 0.0000000000000000e+00  1.0947157678213952e+00 0.0000000000000000e+00 0.0000000000000000e+00  1.0945465260397300e+00 0.0000000000000000e+00 0.0000000000000000e+00  1.0918832935786427e+00 0.0000000000000000e+00 0.0000000000000000e+00  1.0877468619962591e+00 0.0000000000000000e+00 0.0000000000000000e+00  1.0814059533476135e+00 0.0000000000000000e+00 0.0000000000000000e+00  1.0758234989304016e+00 0.0000000000000000e+00 0.0000000000000000e+00  1.0705598536914922e+00 0.0000000000000000e+00 0.0000000000000000e+00  1.0664703196371559e+00 0.0000000000000000e+00 0.0000000000000000e+00  1.0644902881730318e+00 0.0000000000000000e+00 0.0000000000000000e+00  1.0641724684366320e+00 0.0000000000000000e+00 0.0000000000000000e+00  1.0653348706370553e+00 0.0000000000000000e+00 0.0000000000000000e+00  1.0667773535230465e+00 0.0000000000000000e+00 0.0000000000000000e+00  1.0674920470997600e+00 0.0000000000000000e+00 0.0000000000000000e+00  1.0680688463781702e+00 0.0000000000000000e+00 0.0000000000000000e+00  1.0670449394477557e+00 0.0000000000000000e+00 0.0000000000000000e+00  1.0627912716678358e+00 0.0000000000000000e+00 0.0000000000000000e+00  1.0577505297060439e+00 0.0000000000000000e+00 0.0000000000000000e+00  1.0517058433559554e+00 0.0000000000000000e+00 0.0000000000000000e+00  1.0458234037390548e+00 0.0000000000000000e+00 0.0000000000000000e+00  1.0415721060865555e+00 0.0000000000000000e+00 0.0000000000000000e+00  1.0389429239153778e+00 0.0000000000000000e+00 0.0000000000000000e+00  1.0388316761759475e+00 0.0000000000000000e+00 0.0000000000000000e+00  1.0415857750017372e+00 0.0000000000000000e+00 0.0000000000000000e+00  1.0455245341126995e+00 0.0000000000000000e+00 0.0000000000000000e+00  1.0503714514775426e+00 0.0000000000000000e+00 0.0000000000000000e+00  1.0567190445575796e+00 0.0000000000000000e+00 0.0000000000000000e+00  1.0607394214097619e+00 0.0000000000000000e+00 0.0000000000000000e+00  1.0624845809481087e+00 0.0000000000000000e+00 0.0000000000000000e+00  1.0626860476703748e+00 0.0000000000000000e+00 0.0000000000000000e+00  1.0598707771397926e+00 0.0000000000000000e+00 0.0000000000000000e+00  1.0553832708142530e+00 0.0000000000000000e+00 0.0000000000000000e+00  1.0519177403638373e+00 0.0000000000000000e+00 0.0000000000000000e+00  1.0481321110723414e+00 0.0000000000000000e+00 0.0000000000000000e+00  1.0457571554772909e+00 0.0000000000000000e+00 0.0000000000000000e+00  1.0461663403567523e+00 0.0000000000000000e+00 0.0000000000000000e+00  1.0479062425745294e+00 0.0000000000000000e+00 0.0000000000000000e+00  1.0512740283720214e+00 0.0000000000000000e+00 0.0000000000000000e+00  1.0562525900482362e+00 0.0000000000000000e+00 0.0000000000000000e+00  1.0602301352663455e+00 0.0000000000000000e+00 0.0000000000000000e+00  1.0627735769230826e+00 0.0000000000000000e+00 0.0000000000000000e+00  1.0660465347960075e+00 0.0000000000000000e+00 0.0000000000000000e+00  1.0652063158248792e+00 0.0000000000000000e+00 0.0000000000000000e+00  1.0608534271977565e+00 0.0000000000000000e+00 0.0000000000000000e+00  1.0564804115921300e+00 0.0000000000000000e+00 0.0000000000000000e+00  1.0536425609782933e+00 0.0000000000000000e+00 0.0000000000000000e+00  1.0506127072862805e+00 0.0000000000000000e+00 0.0000000000000000e+00  1.0503878250252752e+00 0.0000000000000000e+00 0.0000000000000000e+00  1.0521127239373802e+00 0.0000000000000000e+00 0.0000000000000000e+00  1.0551974044226475e+00 0.0000000000000000e+00 0.0000000000000000e+00  1.0595297516795656e+00 0.0000000000000000e+00 0.0000000000000000e+00  1.0634398792189184e+00 0.0000000000000000e+00 0.0000000000000000e+00  1.0655166377992729e+00 0.0000000000000000e+00 0.0000000000000000e+00  1.0657681543885364e+00 0.0000000000000000e+00 0.0000000000000000e+00  1.0644723918706667e+00 0.0000000000000000e+00 0.0000000000000000e+00  1.0617927211187286e+00 0.0000000000000000e+00 0.0000000000000000e+00  1.0581281028692751e+00 0.0000000000000000e+00 0.0000000000000000e+00  1.0553331331098950e+00 0.0000000000000000e+00 0.0000000000000000e+00  1.0538305776033359e+00 0.0000000000000000e+00 0.0000000000000000e+00  1.0539024692992427e+00 0.0000000000000000e+00 0.0000000000000000e+00  1.0565266200477730e+00 0.0000000000000000e+00 0.0000000000000000e+00  1.0606744193929887e+00 0.0000000000000000e+00 0.0000000000000000e+00  1.0661903805510742e+00 0.0000000000000000e+00 0.0000000000000000e+00  1.0705711319436060e+00 0.0000000000000000e+00 0.0000000000000000e+00  1.0744257185980741e+00 0.0000000000000000e+00 0.0000000000000000e+00  1.0762526552038914e+00 0.0000000000000000e+00 0.0000000000000000e+00  1.0770716160606022e+00 0.0000000000000000e+00 0.0000000000000000e+00  1.0758649074542688e+00 0.0000000000000000e+00 0.0000000000000000e+00  1.0746904640710826e+00 0.0000000000000000e+00 0.0000000000000000e+00  1.0729163596444315e+00 0.0000000000000000e+00 0.0000000000000000e+00  1.0728621128526845e+00 -4.9297624327045739e-04 0.0000000000000000e+00  1.0711285643542343e+00 -5.5692624320475832e-04 0.0000000000000000e+00  1.0670767482228485e+00 5.4772422875714970e-04 0.0000000000000000e+00  1.0571739617721951e+00 3.7966284453187808e-03 0.0000000000000000e+00  1.0408284483922752e+00 9.5664523894030285e-03 0.0000000000000000e+00  1.0131035732277556e+00 2.0552673291827916e-02 0.0000000000000000e+00  9.7183344751227363e-01 3.3492045048380159e-02 0.0000000000000000e+00  9.1691910896001827e-01 4.9106990662875875e-02 0.0000000000000000e+00  8.5256868922674178e-01 5.7205501765635859e-02 0.0000000000000000e+00  7.8718592213381633e-01 5.1761643904056062e-02 0.0000000000000000e+00  7.3200919266330011e-01 4.9795758863843291e-02 0.0000000000000000e+00  7.0871974145090111e-01 5.9332016095592063e-02 0.0000000000000000e+00  7.4518611478771524e-01 8.3227896158237447e-02 0.0000000000000000e+00  8.5005107389627310e-01 1.0974617499249197e-01 0.0000000000000000e+00  9.8947294639503847e-01 1.3873340546548152e-01 0.0000000000000000e+00  1.1114403759055000e+00 1.3959616301184583e-01 0.0000000000000000e+00  1.1744759139294734e+00 1.1710041534190987e-01 0.0000000000000000e+00  1.1787127889599973e+00 8.7827651002426885e-02 0.0000000000000000e+00  1.1529403329624119e+00 5.8314716811099641e-02 0.0000000000000000e+00  1.1262535009403907e+00 3.6486750620099317e-02 0.0000000000000000e+00  1.1093936929590811e+00 2.2430984235514602e-02 0.0000000000000000e+00  1.1010394064762916e+00 1.3143028358508497e-02 0.0000000000000000e+00  1.0960657463561845e+00 5.9191604510304939e-03 0.0000000000000000e+00  1.0871541249970300e+00 0.0000000000000000e+00 0.0000000000000000e+00  1.0793787592485740e+00 0.0000000000000000e+00 0.0000000000000000e+00  1.0716724186767204e+00 0.0000000000000000e+00 0.0000000000000000e+00  1.0658093270844120e+00 0.0000000000000000e+00 0.0000000000000000e+00  1.0614977715514908e+00 0.0000000000000000e+00 0.0000000000000000e+00  1.0601198414875019e+00 0.0000000000000000e+00 0.0000000000000000e+00  1.0609616291722781e+00 0.0000000000000000e+00 0.0000000000000000e+00  1.0635694118267054e+00 0.0000000000000000e+00 0.0000000000000000e+00  1.0658831652878769e+00 0.0000000000000000e+00 0.0000000000000000e+00  1.0680654993506491e+00 0.0000000000000000e+00 0.0000000000000000e+00  1.0687161115177202e+00 0.0000000000000000e+00 0.0000000000000000e+00  1.0675700313925642e+00 0.0000000000000000e+00 0.0000000000000000e+00  1.0646622537204398e+00 0.0000000000000000e+00 0.0000000000000000e+00  1.0613002007579762e+00 0.0000000000000000e+00 0.0000000000000000e+00  1.0566403183587931e+00 0.0000000000000000e+00 0.0000000000000000e+00  1.0536786093891208e+00 0.0000000000000000e+00 0.0000000000000000e+00  1.0507686899047883e+00 0.0000000000000000e+00 0.0000000000000000e+00  1.0503870647333633e+00 0.0000000000000000e+00 0.0000000000000000e+00  1.0517721088373708e+00 0.0000000000000000e+00 0.0000000000000000e+00  1.0553159589341534e+00 0.0000000000000000e+00 0.0000000000000000e+00  1.0591328116897529e+00 0.0000000000000000e+00 0.0000000000000000e+00  1.0623475700655578e+00 0.0000000000000000e+00 0.0000000000000000e+00  1.0646210795062001e+00 0.0000000000000000e+00 0.0000000000000000e+00  1.0623307550239600e+00 0.0000000000000000e+00 0.0000000000000000e+00  1.0589751015356870e+00 0.0000000000000000e+00 0.0000000000000000e+00  1.0539745903856779e+00 0.0000000000000000e+00 0.0000000000000000e+00  1.0506518374805360e+00 0.0000000000000000e+00 0.0000000000000000e+00  1.0492624205008574e+00 0.0000000000000000e+00 0.0000000000000000e+00  1.0484684711437033e+00 0.0000000000000000e+00 0.0000000000000000e+00  1.0477433041976392e+00 0.0000000000000000e+00 0.0000000000000000e+00  1.0509910411072509e+00 0.0000000000000000e+00 0.0000000000000000e+00  1.0552789057947818e+00 0.0000000000000000e+00 0.0000000000000000e+00  1.0589366620740874e+00 0.0000000000000000e+00 0.0000000000000000e+00  1.0623177942743227e+00 0.0000000000000000e+00 0.0000000000000000e+00  1.0639217921390280e+00 0.0000000000000000e+00 0.0000000000000000e+00  1.0625866498434249e+00 0.0000000000000000e+00 0.0000000000000000e+00  1.0598271743916261e+00 0.0000000000000000e+00 0.0000000000000000e+00  1.0552798340941554e+00 0.0000000000000000e+00 0.0000000000000000e+00  1.0492527525923776e+00 0.0000000000000000e+00 0.0000000000000000e+00  1.0450228426207810e+00 0.0000000000000000e+00 0.0000000000000000e+00  1.0421936470386353e+00 0.0000000000000000e+00 0.0000000000000000e+00  1.0405385180009727e+00 0.0000000000000000e+00 0.0000000000000000e+00  1.0421985584236835e+00 0.0000000000000000e+00 0.0000000000000000e+00  1.0457065050543146e+00 0.0000000000000000e+00 0.0000000000000000e+00  1.0494990590311730e+00 0.0000000000000000e+00 0.0000000000000000e+00  1.0549917061012017e+00 0.0000000000000000e+00 0.0000000000000000e+00  1.0596332198861964e+00 0.0000000000000000e+00 0.0000000000000000e+00  1.0617034199738824e+00 0.0000000000000000e+00 0.0000000000000000e+00  1.0618275703909883e+00 0.0000000000000000e+00 0.0000000000000000e+00  1.0596601345662955e+00 0.0000000000000000e+00 0.0000000000000000e+00  1.0552924634046779e+00 0.0000000000000000e+00 0.0000000000000000e+00  1.0505653851317389e+00 0.0000000000000000e+00 0.0000000000000000e+00  1.0462109026120090e+00 0.0000000000000000e+00 0.0000000000000000e+00  1.0430641277757231e+00 0.0000000000000000e+00 0.0000000000000000e+00  1.0428503553995339e+00 0.0000000000000000e+00 0.0000000000000000e+00  1.0439587189091488e+00 0.0000000000000000e+00 0.0000000000000000e+00  1.0478315389826593e+00 0.0000000000000000e+00 0.0000000000000000e+00  1.0542540093894295e+00 0.0000000000000000e+00 0.0000000000000000e+00  1.0616591756304234e+00 0.0000000000000000e+00 0.0000000000000000e+00  1.0687570774873856e+00 0.0000000000000000e+00 0.0000000000000000e+00  1.0749122217809379e+00 0.0000000000000000e+00 0.0000000000000000e+00  1.0803762417978973e+00 0.0000000000000000e+00 0.0000000000000000e+00  1.0852603250744772e+00 0.0000000000000000e+00 0.0000000000000000e+00  1.0880171975420034e+00 0.0000000000000000e+00 0.0000000000000000e+00  1.0894101400229934e+00 0.0000000000000000e+00 0.0000000000000000e+00  1.0912475059570506e+00 0.0000000000000000e+00 0.0000000000000000e+00  1.0906369613817473e+00 0.0000000000000000e+00 0.0000000000000000e+00  1.0901434257494325e+00 0.0000000000000000e+00 0.0000000000000000e+00  1.0884339303366490e+00 0.0000000000000000e+00 0.0000000000000000e+00  1.0850540213476598e+00 0.0000000000000000e+00 0.0000000000000000e+00  1.0807370465056474e+00 0.0000000000000000e+00 0.0000000000000000e+00  1.0756505185476954e+00 0.0000000000000000e+00 0.0000000000000000e+00  1.0695978016877341e+00 0.0000000000000000e+00 0.0000000000000000e+00  1.0621383283062693e+00 0.0000000000000000e+00 0.0000000000000000e+00  1.0552278322384590e+00 0.0000000000000000e+00 0.0000000000000000e+00  1.0475490683898947e+00 0.0000000000000000e+00 0.0000000000000000e+00  1.0327851034996238e+00 0.0000000000000000e+00 0.0000000000000000e+00  1.0263371711715896e+00 0.0000000000000000e+00 0.0000000000000000e+00  1.0211969147767370e+00 0.0000000000000000e+00 0.0000000000000000e+00  1.0165473076035274e+00 0.0000000000000000e+00 0.0000000000000000e+00  1.0127584919280204e+00 0.0000000000000000e+00 0.0000000000000000e+00  1.0097727394027156e+00 0.0000000000000000e+00 0.0000000000000000e+00  1.0075247705682735e+00 0.0000000000000000e+00 0.0000000000000000e+00  1.0053748757692254e+00 0.0000000000000000e+00 0.0000000000000000e+00  1.0039014589291460e+00 0.0000000000000000e+00 0.0000000000000000e+00  1.0029193593975547e+00 0.0000000000000000e+00 0.0000000000000000e+00  1.0017601721076093e+00 0.0000000000000000e+00 0.0000000000000000e+00  1.0016072485459118e+00 0.0000000000000000e+00 0.0000000000000000e+00  1.0005314245233079e+00 0.0000000000000000e+00 0.0000000000000000e+00  1.0004783575052503e+00 0.0000000000000000e+00 0.0000000000000000e+00  1.0000046888626852e+00 0.0000000000000000e+00 0.0000000000000000e+00  1.0006201004834834e+00 0.0000000000000000e+00 0.0000000000000000e+00  1.0003083077551516e+00 0.0000000000000000e+00 0.0000000000000000e+00  9.9980704544047594e-01 0.0000000000000000e+00 0.0000000000000000e+00  1.0000001300239620e+00 0.0000000000000000e+00 0.0000000000000000e+00  1.0000001300239620e+00 0.0000000000000000e+00 0.0000000000000000e+00  1.0000001300239620e+00 0.0000000000000000e+00 0.0000000000000000e+00  1.0000001300239620e+00 0.0000000000000000e+00 0.0000000000000000e+00  1.0000001300239620e+00 0.0000000000000000e+00 0.0000000000000000e+00  1.0000001300239620e+00 0.0000000000000000e+00 0.0000000000000000e+00  1.0000001300239620e+00 0.0000000000000000e+00 0.0000000000000000e+00  1.0000001300239620e+00 0.0000000000000000e+00 0.0000000000000000e+00  1.0000001300239620e+00 0.0000000000000000e+00 0.0000000000000000e+00  1.0000001300239620e+00 0.0000000000000000e+00 0.0000000000000000e+00  1.0000001300239620e+00 0.0000000000000000e+00 0.0000000000000000e+00  1.0000001300239620e+00 0.0000000000000000e+00 0.0000000000000000e+00  1.0000001300239620e+00 0.0000000000000000e+00 0.0000000000000000e+00  1.0000001300239620e+00 0.0000000000000000e+00 0.0000000000000000e+00  1.0000001300239620e+00 0.0000000000000000e+00 0.0000000000000000e+00  1.0000001300239620e+00 0.0000000000000000e+00 0.0000000000000000e+00  1.0000001300239620e+00 0.0000000000000000e+00 0.0000000000000000e+00  1.0000001300239620e+00 0.0000000000000000e+00 0.0000000000000000e+00  1.0000001300239620e+00 0.0000000000000000e+00 0.0000000000000000e+00  1.0000001300239620e+00 0.0000000000000000e+00 0.0000000000000000e+00  1.0401540538978535e+00 -9.5957253728721752e-03 0.0000000000000000e+00  1.0370118580953711e+00 -1.9355927299523856e-02 0.0000000000000000e+00  1.0345277618588351e+00 -2.9763308315616313e-02 0.0000000000000000e+00  1.0283943220278842e+00 -4.0673052350582009e-02 0.0000000000000000e+00  1.0219472775251841e+00 -5.5607160407300134e-02 0.0000000000000000e+00  1.0262834003392185e+00 -5.9219422577138463e-02 0.0000000000000000e+00  1.0302886238133986e+00 -6.2916400687900623e-02 0.0000000000000000e+00  1.0352985027504413e+00 -6.6348011923992783e-02 0.0000000000000000e+00  1.0406096129097178e+00 -6.9643300868562838e-02 0.0000000000000000e+00  1.0465601604434518e+00 -7.2555510980402180e-02 0.0000000000000000e+00  1.0531102161501227e+00 -7.5119425112110089e-02 0.0000000000000000e+00  1.0601429240247005e+00 -7.7044357418577347e-02 0.0000000000000000e+00  1.0677033809951699e+00 -7.8435677053530495e-02 0.0000000000000000e+00  1.0754451229615529e+00 -7.8958327784892118e-02 0.0000000000000000e+00  1.0835424603321655e+00 -7.8823397444292856e-02 0.0000000000000000e+00  1.0917376995081833e+00 -7.7898603963656651e-02 0.0000000000000000e+00  1.1000504217827241e+00 -7.5906695042742806e-02 0.0000000000000000e+00  1.1080617459898938e+00 -7.2967482288691890e-02 0.0000000000000000e+00  1.1158478331919675e+00 -6.9267816887697134e-02 0.0000000000000000e+00  1.1232586589937406e+00 -6.4705876895416278e-02 0.0000000000000000e+00  1.1300850083101392e+00 -5.9312198817568725e-02 0.0000000000000000e+00  1.1363404471181260e+00 -5.3215189950245212e-02 0.0000000000000000e+00  1.1419008821043435e+00 -4.6511191834882719e-02 0.0000000000000000e+00  1.1467593443744033e+00 -3.9092242791733026e-02 0.0000000000000000e+00  1.1508413332938601e+00 -3.1345845059167612e-02 0.0000000000000000e+00  1.1541132570071433e+00 -2.3012729164480168e-02 0.0000000000000000e+00  1.1563836028381496e+00 -1.4246027150243493e-02 0.0000000000000000e+00  1.1578498094710450e+00 -5.2273345600248652e-03 0.0000000000000000e+00  1.1581765002397755e+00 3.9922970018199874e-03 0.0000000000000000e+00  1.1574628396209423e+00 1.3383481173185474e-02 0.0000000000000000e+00  1.1555712516201511e+00 2.2789662382603503e-02 0.0000000000000000e+00  1.1524472416053928e+00 3.1976783733141972e-02 0.0000000000000000e+00  1.1481410129129046e+00 4.0973946416338156e-02 0.0000000000000000e+00  1.1425559803098424e+00 4.9565081924865730e-02 0.0000000000000000e+00  1.1358156894949967e+00 5.7441960959327382e-02 0.0000000000000000e+00  1.1279523818109578e+00 6.4480827209690325e-02 0.0