<?xml version="1.0"?>
<VTKFile type="UnstructuredGrid"  version="0.1"  >
<UnstructuredGrid>
<Piece  NumberOfPoints="10199" NumberOfCells="20110">
<Points>
<DataArray  type="Float64"  NumberOfComponents="3"  format="ascii">0 -5 0  8 -5 0  30 -5 0  40 -5 0  40 5 0  30 5 0  8 5 0  0 5 0  8 -2.5 0  15 -2.5 0  30 -2.5 0  30 2.5 0  15 2.5 0  8 2.5 0  10 0.5 0  10 -0.5 0  0 0 0  0.4210526315780956 -5 0  0.8421052631563433 -5 0  1.263157894734281 -5 0  1.684210526311999 -5 0  2.105263157889717 -5 0  2.526315789467435 -5 0  2.947368421045153 -5 0  3.368421052622872 -5 0  3.78947368420059 -5 0  4.210526315779479 -5 0  4.631578947359537 -5 0  5.052631578939595 -5 0  5.473684210519653 -5 0  5.89473684209971 -5 0  6.315789473679768 -5 0  6.736842105259826 -5 0  7.157894736839884 -5 0  7.578947368419942 -5 0  8.407407407405314 -5 0  8.814814814810628 -5 0  9.222222222215942 -5 0  9.629629629621256 -5 0  10.03703703702657 -5 0  10.44444444443188 -5 0  10.8518518518372 -5 0  11.25925925924251 -5 0  11.66666666664783 -5 0  12.07407407405314 -5 0  12.48148148145846 -5 0  12.88888888886377 -5 0  13.29629629626908 -5 0  13.7037037036744 -5 0  14.11111111107971 -5 0  14.51851851848502 -5 0  14.92592592589034 -5 0  15.33333333329565 -5 0  15.74074074070096 -5 0  16.14814814810754 -5 0  16.55555555551614 -5 0  16.96296296292474 -5 0  17.37037037033335 -5 0  17.77777777774195 -5 0  18.18518518515056 -5 0  18.59259259255916 -5 0  18.99999999996776 -5 0  19.40740740737636 -5 0  19.81481481478497 -5 0  20.22222222219357 -5 0  20.62962962960217 -5 0  21.03703703701077 -5 0  21.44444444441937 -5 0  21.85185185182797 -5 0  22.25925925923657 -5 0  22.66666666664518 -5 0  23.07407407405378 -5 0  23.48148148146238 -5 0  23.88888888887098 -5 0  24.29629629627958 -5 0  24.70370370368818 -5 0  25.11111111109678 -5 0  25.51851851850539 -5 0  25.92592592591399 -5 0  26.33333333332259 -5 0  26.74074074073119 -5 0  27.14814814813979 -5 0  27.55555555554839 -5 0  27.96296296295699 -5 0  28.3703703703656 -5 0  28.7777777777742 -5 0  29.1851851851828 -5 0  29.5925925925914 -5 0  30.41666666667852 -5 0  30.83333333335704 -5 0  31.25000000003556 -5 0  31.66666666671408 -5 0  32.08333333338936 -5 0  32.50000000005308 -5 0  32.9166666667168 -5 0  33.33333333338052 -5 0  33.75000000004424 -5 0  34.16666666670795 -5 0  34.58333333337167 -5 0  35.00000000003539 -5 0  35.41666666669911 -5 0  35.83333333336282 -5 0  36.25000000002654 -5 0  36.66666666669026 -5 0  37.08333333335398 -5 0  37.50000000001769 -5 0  37.91666666668141 -5 0  38.33333333334513 -5 0  38.75000000000885 -5 0  39.16666666667257 -5 0  39.58333333333628 -5 0  40 -4.583333333332821 0  40 -4.166666666665642 0  40 -3.74999999999855 0  40 -3.333333333333135 0  40 -2.916666666667806 0  40 -2.500000000002478 0  40 -2.083333333337148 0  40 -1.666666666671818 0  40 -1.250000000006488 0  40 -0.8333333333405228 0  40 -0.4166666666733416 0  40 -6.163070054299169e-12 0  40 0.4166666666610173 0  40 0.8333333333281976 0  40 1.249999999995378 0  40 1.666666666662558 0  40 2.083333333329739 0  40 2.499999999996919 0  40 2.916666666664099 0  40 3.33333333333128 0  40 3.74999999999846 0  40 4.166666666665641 0  40 4.583333333332821 0  39.58333333333628 5 0  39.16666666667256 5 0  38.75000000000885 5 0  38.33333333334513 5 0  37.91666666668141 5 0  37.50000000001769 5 0  37.08333333335398 5 0  36.66666666669025 5 0  36.25000000002654 5 0  35.83333333336282 5 0  35.41666666669911 5 0  35.00000000003539 5 0  34.58333333337167 5 0  34.16666666670795 5 0  33.75000000004424 5 0  33.33333333338052 5 0  32.9166666667168 5 0  32.50000000005308 5 0  32.08333333338936 5 0  31.66666666671408 5 0  31.25000000003556 5 0  30.83333333335704 5 0  30.41666666667852 5 0  29.59259259259259 5 0  29.18518518518519 5 0  28.77777777777778 5 0  28.37037037037037 5 0  27.96296296296296 5 0  27.55555555555556 5 0  27.14814814814815 5 0  26.74074074074074 5 0  26.33333333333333 5 0  25.92592592592593 5 0  25.51851851851852 5 0  25.11111111111111 5 0  24.7037037037037 5 0  24.2962962962963 5 0  23.88888888888889 5 0  23.48148148148148 5 0  23.07407407407408 5 0  22.66666666666667 5 0  22.25925925925926 5 0  21.85185185185185 5 0  21.44444444444445 5 0  21.03703703703704 5 0  20.62962962962963 5 0  20.22222222222222 5 0  19.81481481481482 5 0  19.40740740740741 5 0  19 5 0  18.5925925925926 5 0  18.18518518518519 5 0  17.77777777777778 5 0  17.37037037037037 5 0  16.96296296296296 5 0  16.55555555555556 5 0  16.14814814814815 5 0  15.74074074074074 5 0  15.33333333333333 5 0  14.92592592592593 5 0  14.51851851851852 5 0  14.11111111111111 5 0  13.70370370370371 5 0  13.2962962962963 5 0  12.88888888888889 5 0  12.48148148148148 5 0  12.07407407407408 5 0  11.66666666666667 5 0  11.25925925925926 5 0  10.85185185185185 5 0  10.44444444444445 5 0  10.03703703703704 5 0  9.629629629629633 5 0  9.222222222222221 5 0  8.814814814814817 5 0  8.407407407407408 5 0  7.5789473684193 5 0  7.157894736838599 5 0  6.73684210526082 5 0  6.315789473684795 5 0  5.894736842108769 5 0  5.473684210532742 5 0  5.052631578956715 5 0  4.631578947380689 5 0  4.210526315804662 5 0  3.789473684226299 5 0  3.368421052645599 5 0  2.947368421064898 5 0  2.526315789484198 5 0  2.105263157903499 5 0  1.6842105263228 5 0  1.2631578947421 5 0  0.8421052631613994 5 0  0.4210526315806993 5 0  0 4.545454545454545 0  0 4.09090909090909 0  0 3.636363636363634 0  0 3.18181818181818 0  0 2.727272727272726 0  0 2.272727272727271 0  0 1.818181818181817 0  0 1.363636363636363 0  0 0.9090909090909092 0  0 0.454545454545455 0  0 -0.4545454545450807 0  0 -0.9090909090895867 0  0 -1.363636363633713 0  0 -1.818181818177841 0  0 -2.272727272723127 0  0 -2.727272727269273 0  0 -3.181818181815419 0  0 -3.636363636361564 0  0 -4.090909090907709 0  0 -4.545454545453855 0  8 -4.499999999999999 0  8 -3.999999999999999 0  8 -3.499999999999999 0  8 -3 0  8.137254901963859 -2.5 0  8.274509803926303 -2.5 0  8.411764705886863 -2.5 0  8.549019607849138 -2.5 0  8.686274509809513 -2.5 0  8.82352941176989 -2.5 0  8.960784313730265 -2.5 0  9.098039215690642 -2.5 0  9.235294117651017 -2.5 0  9.372549019611395 -2.5 0  9.50980392157177 -2.5 0  9.647058823532147 -2.5 0  9.784313725492522 -2.5 0  9.921568627452897 -2.5 0  10.05882352941327 -2.5 0  10.19607843137365 -2.5 0  10.33333333333402 -2.5 0  10.4705882352944 -2.5 0  10.60784313725478 -2.5 0  10.74509803921515 -2.5 0  10.88235294117553 -2.5 0  11.0196078431359 -2.5 0  11.15686274509628 -2.5 0  11.29411764705665 -2.5 0  11.43137254901703 -2.5 0  11.56862745097915 -2.5 0  11.70588235294301 -2.5 0  11.84313725490686 -2.5 0  11.98039215687072 -2.5 0  12.11764705883209 -2.5 0  12.25490196079247 -2.5 0  12.39215686275285 -2.5 0  12.52941176471322 -2.5 0  12.6666666666736 -2.5 0  12.80392156863397 -2.5 0  12.94117647059435 -2.5 0  13.07843137255473 -2.5 0  13.2156862745151 -2.5 0  13.35294117647548 -2.5 0  13.49019607843586 -2.5 0  13.62745098039623 -2.5 0  13.76470588235661 -2.5 0  13.90196078431699 -2.5 0  14.03921568627736 -2.5 0  14.17647058823774 -2.5 0  14.31372549019812 -2.5 0  14.45098039215849 -2.5 0  14.58823529411887 -2.5 0  14.72549019607925 -2.5 0  14.86274509803962 -2.5 0  15.20270270270254 -2.5 0  15.40540540540509 -2.5 0  15.60810810810763 -2.5 0  15.81081081081017 -2.5 0  16.01351351351227 -2.5 0  16.21621621621265 -2.5 0  16.41891891891279 -2.5 0  16.62162162161294 -2.5 0  16.82432432431308 -2.5 0  17.02702702701322 -2.5 0  17.22972972971337 -2.5 0  17.43243243241351 -2.5 0  17.63513513511365 -2.5 0  17.83783783781379 -2.5 0  18.04054054051394 -2.5 0  18.24324324321408 -2.5 0  18.44594594591422 -2.5 0  18.64864864861436 -2.5 0  18.85135135131451 -2.5 0  19.05405405401465 -2.5 0  19.25675675671479 -2.5 0  19.45945945941494 -2.5 0  19.66216216211508 -2.5 0  19.86486486481522 -2.5 0  20.06756756751536 -2.5 0  20.27027027021551 -2.5 0  20.47297297291565 -2.5 0  20.6756756756158 -2.5 0  20.87837837831594 -2.5 0  21.08108108101608 -2.5 0  21.28378378371622 -2.5 0  21.48648648641637 -2.5 0  21.68918918911651 -2.5 0  21.89189189181666 -2.5 0  22.0945945945168 -2.5 0  22.29729729721694 -2.5 0  22.49999999991778 -2.5 0  22.70270270262203 -2.5 0  22.90540540532697 -2.5 0  23.10810810803191 -2.5 0  23.31081081073686 -2.5 0  23.5135135134418 -2.5 0  23.71621621614674 -2.5 0  23.91891891885169 -2.5 0  24.12162162155663 -2.5 0  24.32432432426158 -2.5 0  24.52702702696652 -2.5 0  24.72972972967146 -2.5 0  24.93243243237641 -2.5 0  25.13513513508135 -2.5 0  25.3378378377863 -2.5 0  25.54054054049124 -2.5 0  25.74324324319618 -2.5 0  25.94594594590112 -2.5 0  26.14864864860607 -2.5 0  26.35135135131101 -2.5 0  26.55405405401596 -2.5 0  26.7567567567209 -2.5 0  26.95945945942584 -2.5 0  27.16216216213079 -2.5 0  27.36486486483573 -2.5 0  27.56756756754068 -2.5 0  27.77027027024562 -2.5 0  27.97297297295056 -2.5 0  28.1756756756555 -2.5 0  28.37837837836045 -2.5 0  28.5810810810654 -2.5 0  28.78378378377034 -2.5 0  28.98648648647528 -2.5 0  29.18918918918023 -2.5 0  29.39189189188517 -2.5 0  29.59459459459011 -2.5 0  29.79729729729506 -2.5 0  30 -3.000000000000001 0  30 -3.500000000000001 0  30 -4.000000000000001 0  30 -4.5 0  8 4.499999999999999 0  8 3.999999999999999 0  8 3.499999999999999 0  8 3 0  8.137254901963859 2.5 0  8.274509803926303 2.5 0  8.411764705886863 2.5 0  8.549019607849138 2.5 0  8.686274509809513 2.5 0  8.82352941176989 2.5 0  8.960784313730265 2.5 0  9.098039215690642 2.5 0  9.235294117651017 2.5 0  9.372549019611395 2.5 0  9.50980392157177 2.5 0  9.647058823532147 2.5 0  9.784313725492522 2.5 0  9.921568627452897 2.5 0  10.05882352941327 2.5 0  10.19607843137365 2.5 0  10.33333333333402 2.5 0  10.4705882352944 2.5 0  10.60784313725478 2.5 0  10.74509803921515 2.5 0  10.88235294117553 2.5 0  11.0196078431359 2.5 0  11.15686274509628 2.5 0  11.29411764705665 2.5 0  11.43137254901703 2.5 0  11.56862745097915 2.5 0  11.70588235294301 2.5 0  11.84313725490686 2.5 0  11.98039215687072 2.5 0  12.11764705883209 2.5 0  12.25490196079247 2.5 0  1
[...]
<PointData  Vectors="f_17"> 
<DataArray  type="Float64"  Name="f_17"  NumberOfComponents="3" format="ascii">1.0000001333810784e+00 0.0000000000000000e+00 0.0000000000000000e+00  1.0388657291660897e+00 0.0000000000000000e+00 0.0000000000000000e+00  1.0580032633731973e+00 0.0000000000000000e+00 0.0000000000000000e+00  1.0824485216945259e+00 0.0000000000000000e+00 0.0000000000000000e+00  1.0826910892466457e+00 0.0000000000000000e+00 0.0000000000000000e+00  1.0563338156042461e+00 0.0000000000000000e+00 0.0000000000000000e+00  1.0420395696639022e+00 0.0000000000000000e+00 0.0000000000000000e+00  1.0000001333810784e+00 0.0000000000000000e+00 0.0000000000000000e+00  1.0178727763141562e+00 -4.9490776163300124e-02 0.0000000000000000e+00  9.9682582665130270e-01 5.5796386980898241e-02 0.0000000000000000e+00  1.0502754002908985e+00 7.9763023227115593e-02 0.0000000000000000e+00  1.0836384955657610e+00 9.0440819304190415e-02 0.0000000000000000e+00  1.1360379272615508e+00 1.0102766521331250e-02 0.0000000000000000e+00  1.0249056938027288e+00 5.2154369301003103e-02 0.0000000000000000e+00  0.0000000000000000e+00 0.0000000000000000e+00 0.0000000000000000e+00  0.0000000000000000e+00 0.0000000000000000e+00 0.0000000000000000e+00  1.0000001333810784e+00 0.0000000000000000e+00 0.0000000000000000e+00  9.9929521396725463e-01 0.0000000000000000e+00 0.0000000000000000e+00  9.9871838302033811e-01 0.0000000000000000e+00 0.0000000000000000e+00  1.0007204741802138e+00 0.0000000000000000e+00 0.0000000000000000e+00  1.0004404602691470e+00 0.0000000000000000e+00 0.0000000000000000e+00  1.0012674559715005e+00 0.0000000000000000e+00 0.0000000000000000e+00  1.0014025022475213e+00 0.0000000000000000e+00 0.0000000000000000e+00  1.0014907481081246e+00 0.0000000000000000e+00 0.0000000000000000e+00  1.0021021813995823e+00 0.0000000000000000e+00 0.0000000000000000e+00  1.0031052530320668e+00 0.0000000000000000e+00 0.0000000000000000e+00  1.0040468151613038e+00 0.0000000000000000e+00 0.0000000000000000e+00  1.0053303584867286e+00 0.0000000000000000e+00 0.0000000000000000e+00  1.0074175475431644e+00 0.0000000000000000e+00 0.0000000000000000e+00  1.0096055417388132e+00 0.0000000000000000e+00 0.0000000000000000e+00  1.0133684922376784e+00 0.0000000000000000e+00 0.0000000000000000e+00  1.0149210725074556e+00 0.0000000000000000e+00 0.0000000000000000e+00  1.0192712379012276e+00 0.0000000000000000e+00 0.0000000000000000e+00  1.0258060132666103e+00 0.0000000000000000e+00 0.0000000000000000e+00  1.0310474131090557e+00 0.0000000000000000e+00 0.0000000000000000e+00  1.0468511178555655e+00 0.0000000000000000e+00 0.0000000000000000e+00  1.0554233895372731e+00 0.0000000000000000e+00 0.0000000000000000e+00  1.0636241528004389e+00 0.0000000000000000e+00 0.0000000000000000e+00  1.0724995309071004e+00 0.0000000000000000e+00 0.0000000000000000e+00  1.0800533167245496e+00 0.0000000000000000e+00 0.0000000000000000e+00  1.0870063862275083e+00 0.0000000000000000e+00 0.0000000000000000e+00  1.0934447885325536e+00 0.0000000000000000e+00 0.0000000000000000e+00  1.0969972844495264e+00 0.0000000000000000e+00 0.0000000000000000e+00  1.0991841484768428e+00 0.0000000000000000e+00 0.0000000000000000e+00  1.0989271383113590e+00 0.0000000000000000e+00 0.0000000000000000e+00  1.0968376006172940e+00 0.0000000000000000e+00 0.0000000000000000e+00  1.0916228551921645e+00 0.0000000000000000e+00 0.0000000000000000e+00  1.0857572244054345e+00 0.0000000000000000e+00 0.0000000000000000e+00  1.0784883143936757e+00 0.0000000000000000e+00 0.0000000000000000e+00  1.0707713997846424e+00 0.0000000000000000e+00 0.0000000000000000e+00  1.0639362275995383e+00 0.0000000000000000e+00 0.0000000000000000e+00  1.0582913798278024e+00 0.0000000000000000e+00 0.0000000000000000e+00  1.0547241792841160e+00 0.0000000000000000e+00 0.0000000000000000e+00  1.0530796140018064e+00 0.0000000000000000e+00 0.0000000000000000e+00  1.0533087168641320e+00 0.0000000000000000e+00 0.0000000000000000e+00  1.0562690542436628e+00 0.0000000000000000e+00 0.0000000000000000e+00  1.0602653509676516e+00 0.0000000000000000e+00 0.0000000000000000e+00  1.0627082721042878e+00 0.0000000000000000e+00 0.0000000000000000e+00  1.0645534784525534e+00 0.0000000000000000e+00 0.0000000000000000e+00  1.0642181376630107e+00 0.0000000000000000e+00 0.0000000000000000e+00  1.0615563374247232e+00 0.0000000000000000e+00 0.0000000000000000e+00  1.0575177082147700e+00 0.0000000000000000e+00 0.0000000000000000e+00  1.0519914336002172e+00 0.0000000000000000e+00 0.0000000000000000e+00  1.0466186007387386e+00 0.0000000000000000e+00 0.0000000000000000e+00  1.0426159022411672e+00 0.0000000000000000e+00 0.0000000000000000e+00  1.0398044518472247e+00 0.0000000000000000e+00 0.0000000000000000e+00  1.0391785393445179e+00 0.0000000000000000e+00 0.0000000000000000e+00  1.0425037548963141e+00 0.0000000000000000e+00 0.0000000000000000e+00  1.0466250560442842e+00 0.0000000000000000e+00 0.0000000000000000e+00  1.0515367116127809e+00 0.0000000000000000e+00 0.0000000000000000e+00  1.0574042935537911e+00 0.0000000000000000e+00 0.0000000000000000e+00  1.0611336695408551e+00 0.0000000000000000e+00 0.0000000000000000e+00  1.0626391723982118e+00 0.0000000000000000e+00 0.0000000000000000e+00  1.0631720340632818e+00 0.0000000000000000e+00 0.0000000000000000e+00  1.0607160953757502e+00 0.0000000000000000e+00 0.0000000000000000e+00  1.0566802275642340e+00 0.0000000000000000e+00 0.0000000000000000e+00  1.0530541785110847e+00 0.0000000000000000e+00 0.0000000000000000e+00  1.0493771509729337e+00 0.0000000000000000e+00 0.0000000000000000e+00  1.0472111128873427e+00 0.0000000000000000e+00 0.0000000000000000e+00  1.0476718826580274e+00 0.0000000000000000e+00 0.0000000000000000e+00  1.0491958433130797e+00 0.0000000000000000e+00 0.0000000000000000e+00  1.0519814379409644e+00 0.0000000000000000e+00 0.0000000000000000e+00  1.0581474050405193e+00 0.0000000000000000e+00 0.0000000000000000e+00  1.0620198820850675e+00 0.0000000000000000e+00 0.0000000000000000e+00  1.0632181440650532e+00 0.0000000000000000e+00 0.0000000000000000e+00  1.0636687739571851e+00 0.0000000000000000e+00 0.0000000000000000e+00  1.0637414279964110e+00 0.0000000000000000e+00 0.0000000000000000e+00  1.0610761590293811e+00 0.0000000000000000e+00 0.0000000000000000e+00  1.0544086726326742e+00 0.0000000000000000e+00 0.0000000000000000e+00  1.0510837293962814e+00 0.0000000000000000e+00 0.0000000000000000e+00  1.0494367484489611e+00 0.0000000000000000e+00 0.0000000000000000e+00  1.0505633799264420e+00 0.0000000000000000e+00 0.0000000000000000e+00  1.0536794802129732e+00 0.0000000000000000e+00 0.0000000000000000e+00  1.0573578165583617e+00 0.0000000000000000e+00 0.0000000000000000e+00  1.0614880898887187e+00 0.0000000000000000e+00 0.0000000000000000e+00  1.0650312447951491e+00 0.0000000000000000e+00 0.0000000000000000e+00  1.0672647872091294e+00 0.0000000000000000e+00 0.0000000000000000e+00  1.0670925243207297e+00 0.0000000000000000e+00 0.0000000000000000e+00  1.0657408188984583e+00 0.0000000000000000e+00 0.0000000000000000e+00  1.0629208156197869e+00 0.0000000000000000e+00 0.0000000000000000e+00  1.0595442564915605e+00 0.0000000000000000e+00 0.0000000000000000e+00  1.0573008221801377e+00 0.0000000000000000e+00 0.0000000000000000e+00  1.0564593324226557e+00 0.0000000000000000e+00 0.0000000000000000e+00  1.0581416038211313e+00 0.0000000000000000e+00 0.0000000000000000e+00  1.0610302837413141e+00 0.0000000000000000e+00 0.0000000000000000e+00  1.0660174672664926e+00 0.0000000000000000e+00 0.0000000000000000e+00  1.0713952608330053e+00 0.0000000000000000e+00 0.0000000000000000e+00  1.0771219102858718e+00 0.0000000000000000e+00 0.0000000000000000e+00  1.0808906163686485e+00 0.0000000000000000e+00 0.0000000000000000e+00  1.0834312556560088e+00 0.0000000000000000e+00 0.0000000000000000e+00  1.0831893386079323e+00 0.0000000000000000e+00 0.0000000000000000e+00  1.0834664351522501e+00 1.7719441067824899e-03 0.0000000000000000e+00  1.0858103573025910e+00 4.4894624913231519e-03 0.0000000000000000e+00  1.0899246312220279e+00 9.6334007503321752e-03 0.0000000000000000e+00  1.0952518803112676e+00 1.9862809033789383e-02 0.0000000000000000e+00  1.1042066217790856e+00 3.9654016732817751e-02 0.0000000000000000e+00  1.1079059258321609e+00 7.1202530406463987e-02 0.0000000000000000e+00  1.0917150836458176e+00 1.1991640886443888e-01 0.0000000000000000e+00  1.0421269221250116e+00 1.7393241938404980e-01 0.0000000000000000e+00  9.5895855861652424e-01 2.2593200002251318e-01 0.0000000000000000e+00  8.6295178417326002e-01 2.5544278649818947e-01 0.0000000000000000e+00  7.8263666512702235e-01 2.7352382448683743e-01 0.0000000000000000e+00  7.3952745780127849e-01 2.8325403879469718e-01 0.0000000000000000e+00  7.4760592110290747e-01 2.9180491372246259e-01 0.0000000000000000e+00  8.0211562475932718e-01 2.9653108078211510e-01 0.0000000000000000e+00  8.8644396967469019e-01 2.8185034579492335e-01 0.0000000000000000e+00  9.6945631367884333e-01 2.4076033430288427e-01 0.0000000000000000e+00  1.0255192503549124e+00 1.8367287555507134e-01 0.0000000000000000e+00  1.0516330084119014e+00 1.2351614815074652e-01 0.0000000000000000e+00  1.0640137948181299e+00 8.0479607967807773e-02 0.0000000000000000e+00  1.0740406889289140e+00 5.0986657534906915e-02 0.0000000000000000e+00  1.0796752854132221e+00 3.2211234226947764e-02 0.0000000000000000e+00  1.0826070065075299e+00 1.8916813336835158e-02 0.0000000000000000e+00  1.0830747521129644e+00 8.6168929978701313e-03 0.0000000000000000e+00  1.0748630324778157e+00 0.0000000000000000e+00 0.0000000000000000e+00  1.0691055780962568e+00 0.0000000000000000e+00 0.0000000000000000e+00  1.0657425985989106e+00 0.0000000000000000e+00 0.0000000000000000e+00  1.0652523985085334e+00 0.0000000000000000e+00 0.0000000000000000e+00  1.0658823018765411e+00 0.0000000000000000e+00 0.0000000000000000e+00  1.0677909452778076e+00 0.0000000000000000e+00 0.0000000000000000e+00  1.0697712090946003e+00 0.0000000000000000e+00 0.0000000000000000e+00  1.0708995327744657e+00 0.0000000000000000e+00 0.0000000000000000e+00  1.0696795607676384e+00 0.0000000000000000e+00 0.0000000000000000e+00  1.0671106967846782e+00 0.0000000000000000e+00 0.0000000000000000e+00  1.0630228055545778e+00 0.0000000000000000e+00 0.0000000000000000e+00  1.0582752943607527e+00 0.0000000000000000e+00 0.0000000000000000e+00  1.0540081497155678e+00 0.0000000000000000e+00 0.0000000000000000e+00  1.0518360614440840e+00 0.0000000000000000e+00 0.0000000000000000e+00  1.0507942993833475e+00 0.0000000000000000e+00 0.0000000000000000e+00  1.0527518369645641e+00 0.0000000000000000e+00 0.0000000000000000e+00  1.0550763159625451e+00 0.0000000000000000e+00 0.0000000000000000e+00  1.0587497163678223e+00 0.0000000000000000e+00 0.0000000000000000e+00  1.0619268449354111e+00 0.0000000000000000e+00 0.0000000000000000e+00  1.0645528163670741e+00 0.0000000000000000e+00 0.0000000000000000e+00  1.0650790598333273e+00 0.0000000000000000e+00 0.0000000000000000e+00  1.0632054110002940e+00 0.0000000000000000e+00 0.0000000000000000e+00  1.0603520633087329e+00 0.0000000000000000e+00 0.0000000000000000e+00  1.0519078818342587e+00 0.0000000000000000e+00 0.0000000000000000e+00  1.0490527667326519e+00 0.0000000000000000e+00 0.0000000000000000e+00  1.0468753608691233e+00 0.0000000000000000e+00 0.0000000000000000e+00  1.0481410226856953e+00 0.0000000000000000e+00 0.0000000000000000e+00  1.0521062405840553e+00 0.0000000000000000e+00 0.0000000000000000e+00  1.0560203942728288e+00 0.0000000000000000e+00 0.0000000000000000e+00  1.0584247758423277e+00 0.0000000000000000e+00 0.0000000000000000e+00  1.0622928691588656e+00 0.0000000000000000e+00 0.0000000000000000e+00  1.0643538667956585e+00 0.0000000000000000e+00 0.0000000000000000e+00  1.0634474800715585e+00 0.0000000000000000e+00 0.0000000000000000e+00  1.0609879585878688e+00 0.0000000000000000e+00 0.0000000000000000e+00  1.0568768812880591e+00 0.0000000000000000e+00 0.0000000000000000e+00  1.0513734003887267e+00 0.0000000000000000e+00 0.0000000000000000e+00  1.0471090112749293e+00 0.0000000000000000e+00 0.0000000000000000e+00  1.0441105231408105e+00 0.0000000000000000e+00 0.0000000000000000e+00  1.0421919298285103e+00 0.0000000000000000e+00 0.0000000000000000e+00  1.0438031507409959e+00 0.0000000000000000e+00 0.0000000000000000e+00  1.0472593048970267e+00 0.0000000000000000e+00 0.0000000000000000e+00  1.0510946001811770e+00 0.0000000000000000e+00 0.0000000000000000e+00  1.0560601818742525e+00 0.0000000000000000e+00 0.0000000000000000e+00  1.0600036837265023e+00 0.0000000000000000e+00 0.0000000000000000e+00  1.0611100678070722e+00 0.0000000000000000e+00 0.0000000000000000e+00  1.0611811963818125e+00 0.0000000000000000e+00 0.0000000000000000e+00  1.0588337578252207e+00 0.0000000000000000e+00 0.0000000000000000e+00  1.0537679610339759e+00 0.0000000000000000e+00 0.0000000000000000e+00  1.0484258555840156e+00 0.0000000000000000e+00 0.0000000000000000e+00  1.0434680947450772e+00 0.0000000000000000e+00 0.0000000000000000e+00  1.0396622770290933e+00 0.0000000000000000e+00 0.0000000000000000e+00  1.0384669150629395e+00 0.0000000000000000e+00 0.0000000000000000e+00  1.0398694140986613e+00 0.0000000000000000e+00 0.0000000000000000e+00  1.0433152538159618e+00 0.0000000000000000e+00 0.0000000000000000e+00  1.0493690971438185e+00 0.0000000000000000e+00 0.0000000000000000e+00  1.0551758398954107e+00 0.0000000000000000e+00 0.0000000000000000e+00  1.0614503671370690e+00 0.0000000000000000e+00 0.0000000000000000e+00  1.0676835164774714e+00 0.0000000000000000e+00 0.0000000000000000e+00  1.0724056766530738e+00 0.0000000000000000e+00 0.0000000000000000e+00  1.0750752360136571e+00 0.0000000000000000e+00 0.0000000000000000e+00  1.0759588414317698e+00 0.0000000000000000e+00 0.0000000000000000e+00  1.0764363110384898e+00 0.0000000000000000e+00 0.0000000000000000e+00  1.0774810288029435e+00 0.0000000000000000e+00 0.0000000000000000e+00  1.0780551875731585e+00 0.0000000000000000e+00 0.0000000000000000e+00  1.0790946229877465e+00 0.0000000000000000e+00 0.0000000000000000e+00  1.0820818480833956e+00 0.0000000000000000e+00 0.0000000000000000e+00  1.0835995608242888e+00 0.0000000000000000e+00 0.0000000000000000e+00  1.0855984567967141e+00 0.0000000000000000e+00 0.0000000000000000e+00  1.0862910258536658e+00 0.0000000000000000e+00 0.0000000000000000e+00  1.0849001093175725e+00 0.0000000000000000e+00 0.0000000000000000e+00  1.0819939557748455e+00 0.0000000000000000e+00 0.0000000000000000e+00  1.0777683919731444e+00 0.0000000000000000e+00 0.0000000000000000e+00  1.0721159267417619e+00 0.0000000000000000e+00 0.0000000000000000e+00  1.0646991606793252e+00 0.0000000000000000e+00 0.0000000000000000e+00  1.0576653900243478e+00 0.0000000000000000e+00 0.0000000000000000e+00  1.0497567953375273e+00 0.0000000000000000e+00 0.0000000000000000e+00  1.0344726462385359e+00 0.0000000000000000e+00 0.0000000000000000e+00  1.0278378222088504e+00 0.0000000000000000e+00 0.0000000000000000e+00  1.0225633307543429e+00 0.0000000000000000e+00 0.0000000000000000e+00  1.0178175606575386e+00 0.0000000000000000e+00 0.0000000000000000e+00  1.0139408456622729e+00 0.0000000000000000e+00 0.0000000000000000e+00  1.0108718978236122e+00 0.0000000000000000e+00 0.0000000000000000e+00  1.0085178442618108e+00 0.0000000000000000e+00 0.0000000000000000e+00  1.0062280722468961e+00 0.0000000000000000e+00 0.0000000000000000e+00  1.0045984071276035e+00 0.0000000000000000e+00 0.0000000000000000e+00  1.0034246547424328e+00 0.0000000000000000e+00 0.0000000000000000e+00  1.0020763595477240e+00 0.0000000000000000e+00 0.0000000000000000e+00  1.0017636468374296e+00 0.0000000000000000e+00 0.0000000000000000e+00  1.0005539282524123e+00 0.0000000000000000e+00 0.0000000000000000e+00  1.0004075052695820e+00 0.0000000000000000e+00 0.0000000000000000e+00  9.9991156528911662e-01 0.0000000000000000e+00 0.0000000000000000e+00  1.0005285561697281e+00 0.0000000000000000e+00 0.0000000000000000e+00  1.0002568271458860e+00 0.0000000000000000e+00 0.0000000000000000e+00  9.9979710716634296e-01 0.0000000000000000e+00 0.0000000000000000e+00  1.0000001333810784e+00 0.0000000000000000e+00 0.0000000000000000e+00  1.0000001333810784e+00 0.0000000000000000e+00 0.0000000000000000e+00  1.0000001333810784e+00 0.0000000000000000e+00 0.0000000000000000e+00  1.0000001333810784e+00 0.0000000000000000e+00 0.0000000000000000e+00  1.0000001333810784e+00 0.0000000000000000e+00 0.0000000000000000e+00  1.0000001333810784e+00 0.0000000000000000e+00 0.0000000000000000e+00  1.0000001333810784e+00 0.0000000000000000e+00 0.0000000000000000e+00  1.0000001333810784e+00 0.0000000000000000e+00 0.0000000000000000e+00  1.0000001333810784e+00 0.0000000000000000e+00 0.0000000000000000e+00  1.0000001333810784e+00 0.0000000000000000e+00 0.0000000000000000e+00  1.0000001333810784e+00 0.0000000000000000e+00 0.0000000000000000e+00  1.0000001333810784e+00 0.0000000000000000e+00 0.0000000000000000e+00  1.0000001333810784e+00 0.0000000000000000e+00 0.0000000000000000e+00  1.0000001333810784e+00 0.0000000000000000e+00 0.0000000000000000e+00  1.0000001333810784e+00 0.0000000000000000e+00 0.0000000000000000e+00  1.0000001333810784e+00 0.0000000000000000e+00 0.0000000000000000e+00  1.0000001333810784e+00 0.0000000000000000e+00 0.0000000000000000e+00  1.0000001333810784e+00 0.0000000000000000e+00 0.0000000000000000e+00  1.0000001333810784e+00 0.0000000000000000e+00 0.0000000000000000e+00  1.0000001333810784e+00 0.0000000000000000e+00 0.0000000000000000e+00  1.0382000903382382e+00 -9.2613337925158534e-03 0.0000000000000000e+00  1.0350366719400306e+00 -1.8671693059084300e-02 0.0000000000000000e+00  1.0325651362098098e+00 -2.8726647439516802e-02 0.0000000000000000e+00  1.0265666210868953e+00 -3.9096052033463669e-02 0.0000000000000000e+00  1.0203496110562298e+00 -5.3179017418772019e-02 0.0000000000000000e+00  1.0245432404420796e+00 -5.6551163683069172e-02 0.0000000000000000e+00  1.0283348052658066e+00 -6.0010755967188745e-02 0.0000000000000000e+00  1.0331090575208497e+00 -6.3186022098833033e-02 0.0000000000000000e+00  1.0381199833490911e+00 -6.6234540627111455e-02 0.0000000000000000e+00  1.0437176432063573e+00 -6.8886803566143753e-02 0.0000000000000000e+00  1.0498560775341641e+00 -7.1216565417125469e-02 0.0000000000000000e+00  1.0563729653461589e+00 -7.2927030745740917e-02 0.0000000000000000e+00  1.0633569841309523e+00 -7.4126161554210840e-02 0.0000000000000000e+00  1.0703859386377261e+00 -7.4500100884533155e-02 0.0000000000000000e+00  1.0776728683989394e+00 -7.4306005191613456e-02 0.0000000000000000e+00  1.0848961297099196e+00 -7.3452494922443462e-02 0.0000000000000000e+00  1.0921445938033592e+00 -7.1636559033225605e-02 0.0000000000000000e+00  1.0989540817914618e+00 -6.9031526617221575e-02 0.0000000000000000e+00  1.1053955391447245e+00 -6.5932986339205399e-02 0.0000000000000000e+00  1.1113534351252452e+00 -6.2241105405697807e-02 0.0000000000000000e+00  1.1166876284598202e+00 -5.8108842743583113e-02 0.0000000000000000e+00  1.1213774536112009e+00 -5.3631691704770300e-02 0.0000000000000000e+00  1.1255341057669961e+00 -4.9052526050156850e-02 0.0000000000000000e+00  1.1291084708092509e+00 -4.4236766732456141e-02 0.0000000000000000e+00  1.1322109034283234e+00 -3.9649109303232809e-02 0.0000000000000000e+00  1.1349016581918263e+00 -3.4844292793579965e-02 0.0000000000000000e+00  1.1372625934443699e+00 -3.0146296307661101e-02 0.0000000000000000e+00  1.1394941099449647e+00 -2.5583631003495852e-02 0.0000000000000000e+00  1.1415520870202271e+00 -2.1015107745563068e-02 0.0000000000000000e+00  1.1434993904922814e+00 -1.6337533581671129e-02 0.0000000000000000e+00  1.1453542594833959e+00 -1.1386550875077905e-02 0.0000000000000000e+00  1.1471047055458292e+00 -6.1484505444004646e-03 0.0000000000000000e+00  1.1486068430999581e+00 -4.4091033526196482e-04 0.0000000000000000e+00  1.1498232639452859e+00 5.7857552904590675e-03 0.0000000000000000e+00  1.1505176498919669e+00 1.2534949135259158e-02 0.0000000000000000e+00  1.1505577007241983e+00 1.9828826848911064e-02 0.