<?xml version="1.0"?>
<VTKFile type="UnstructuredGrid"  version="0.1"  >
<UnstructuredGrid>
<Piece  NumberOfPoints="10199" NumberOfCells="20110">
<Points>
<DataArray  type="Float64"  NumberOfComponents="3"  format="ascii">0 -5 0  8 -5 0  30 -5 0  40 -5 0  40 5 0  30 5 0  8 5 0  0 5 0  8 -2.5 0  15 -2.5 0  30 -2.5 0  30 2.5 0  15 2.5 0  8 2.5 0  10 0.5 0  10 -0.5 0  0 0 0  0.4210526315780956 -5 0  0.8421052631563433 -5 0  1.263157894734281 -5 0  1.684210526311999 -5 0  2.105263157889717 -5 0  2.526315789467435 -5 0  2.947368421045153 -5 0  3.368421052622872 -5 0  3.78947368420059 -5 0  4.210526315779479 -5 0  4.631578947359537 -5 0  5.052631578939595 -5 0  5.473684210519653 -5 0  5.89473684209971 -5 0  6.315789473679768 -5 0  6.736842105259826 -5 0  7.157894736839884 -5 0  7.578947368419942 -5 0  8.407407407405314 -5 0  8.814814814810628 -5 0  9.222222222215942 -5 0  9.629629629621256 -5 0  10.03703703702657 -5 0  10.44444444443188 -5 0  10.8518518518372 -5 0  11.25925925924251 -5 0  11.66666666664783 -5 0  12.07407407405314 -5 0  12.48148148145846 -5 0  12.88888888886377 -5 0  13.29629629626908 -5 0  13.7037037036744 -5 0  14.11111111107971 -5 0  14.51851851848502 -5 0  14.92592592589034 -5 0  15.33333333329565 -5 0  15.74074074070096 -5 0  16.14814814810754 -5 0  16.55555555551614 -5 0  16.96296296292474 -5 0  17.37037037033335 -5 0  17.77777777774195 -5 0  18.18518518515056 -5 0  18.59259259255916 -5 0  18.99999999996776 -5 0  19.40740740737636 -5 0  19.81481481478497 -5 0  20.22222222219357 -5 0  20.62962962960217 -5 0  21.03703703701077 -5 0  21.44444444441937 -5 0  21.85185185182797 -5 0  22.25925925923657 -5 0  22.66666666664518 -5 0  23.07407407405378 -5 0  23.48148148146238 -5 0  23.88888888887098 -5 0  24.29629629627958 -5 0  24.70370370368818 -5 0  25.11111111109678 -5 0  25.51851851850539 -5 0  25.92592592591399 -5 0  26.33333333332259 -5 0  26.74074074073119 -5 0  27.14814814813979 -5 0  27.55555555554839 -5 0  27.96296296295699 -5 0  28.3703703703656 -5 0  28.7777777777742 -5 0  29.1851851851828 -5 0  29.5925925925914 -5 0  30.41666666667852 -5 0  30.83333333335704 -5 0  31.25000000003556 -5 0  31.66666666671408 -5 0  32.08333333338936 -5 0  32.50000000005308 -5 0  32.9166666667168 -5 0  33.33333333338052 -5 0  33.75000000004424 -5 0  34.16666666670795 -5 0  34.58333333337167 -5 0  35.00000000003539 -5 0  35.41666666669911 -5 0  35.83333333336282 -5 0  36.25000000002654 -5 0  36.66666666669026 -5 0  37.08333333335398 -5 0  37.50000000001769 -5 0  37.91666666668141 -5 0  38.33333333334513 -5 0  38.75000000000885 -5 0  39.16666666667257 -5 0  39.58333333333628 -5 0  40 -4.583333333332821 0  40 -4.166666666665642 0  40 -3.74999999999855 0  40 -3.333333333333135 0  40 -2.916666666667806 0  40 -2.500000000002478 0  40 -2.083333333337148 0  40 -1.666666666671818 0  40 -1.250000000006488 0  40 -0.8333333333405228 0  40 -0.4166666666733416 0  40 -6.163070054299169e-12 0  40 0.4166666666610173 0  40 0.8333333333281976 0  40 1.249999999995378 0  40 1.666666666662558 0  40 2.083333333329739 0  40 2.499999999996919 0  40 2.916666666664099 0  40 3.33333333333128 0  40 3.74999999999846 0  40 4.166666666665641 0  40 4.583333333332821 0  39.58333333333628 5 0  39.16666666667256 5 0  38.75000000000885 5 0  38.33333333334513 5 0  37.91666666668141 5 0  37.50000000001769 5 0  37.08333333335398 5 0  36.66666666669025 5 0  36.25000000002654 5 0  35.83333333336282 5 0  35.41666666669911 5 0  35.00000000003539 5 0  34.58333333337167 5 0  34.16666666670795 5 0  33.75000000004424 5 0  33.33333333338052 5 0  32.9166666667168 5 0  32.50000000005308 5 0  32.08333333338936 5 0  31.66666666671408 5 0  31.25000000003556 5 0  30.83333333335704 5 0  30.41666666667852 5 0  29.59259259259259 5 0  29.18518518518519 5 0  28.77777777777778 5 0  28.37037037037037 5 0  27.96296296296296 5 0  27.55555555555556 5 0  27.14814814814815 5 0  26.74074074074074 5 0  26.33333333333333 5 0  25.92592592592593 5 0  25.51851851851852 5 0  25.11111111111111 5 0  24.7037037037037 5 0  24.2962962962963 5 0  23.88888888888889 5 0  23.48148148148148 5 0  23.07407407407408 5 0  22.66666666666667 5 0  22.25925925925926 5 0  21.85185185185185 5 0  21.44444444444445 5 0  21.03703703703704 5 0  20.62962962962963 5 0  20.22222222222222 5 0  19.81481481481482 5 0  19.40740740740741 5 0  19 5 0  18.5925925925926 5 0  18.18518518518519 5 0  17.77777777777778 5 0  17.37037037037037 5 0  16.96296296296296 5 0  16.55555555555556 5 0  16.14814814814815 5 0  15.74074074074074 5 0  15.33333333333333 5 0  14.92592592592593 5 0  14.51851851851852 5 0  14.11111111111111 5 0  13.70370370370371 5 0  13.2962962962963 5 0  12.88888888888889 5 0  12.48148148148148 5 0  12.07407407407408 5 0  11.66666666666667 5 0  11.25925925925926 5 0  10.85185185185185 5 0  10.44444444444445 5 0  10.03703703703704 5 0  9.629629629629633 5 0  9.222222222222221 5 0  8.814814814814817 5 0  8.407407407407408 5 0  7.5789473684193 5 0  7.157894736838599 5 0  6.73684210526082 5 0  6.315789473684795 5 0  5.894736842108769 5 0  5.473684210532742 5 0  5.052631578956715 5 0  4.631578947380689 5 0  4.210526315804662 5 0  3.789473684226299 5 0  3.368421052645599 5 0  2.947368421064898 5 0  2.526315789484198 5 0  2.105263157903499 5 0  1.6842105263228 5 0  1.2631578947421 5 0  0.8421052631613994 5 0  0.4210526315806993 5 0  0 4.545454545454545 0  0 4.09090909090909 0  0 3.636363636363634 0  0 3.18181818181818 0  0 2.727272727272726 0  0 2.272727272727271 0  0 1.818181818181817 0  0 1.363636363636363 0  0 0.9090909090909092 0  0 0.454545454545455 0  0 -0.4545454545450807 0  0 -0.9090909090895867 0  0 -1.363636363633713 0  0 -1.818181818177841 0  0 -2.272727272723127 0  0 -2.727272727269273 0  0 -3.181818181815419 0  0 -3.636363636361564 0  0 -4.090909090907709 0  0 -4.545454545453855 0  8 -4.499999999999999 0  8 -3.999999999999999 0  8 -3.499999999999999 0  8 -3 0  8.137254901963859 -2.5 0  8.274509803926303 -2.5 0  8.411764705886863 -2.5 0  8.549019607849138 -2.5 0  8.686274509809513 -2.5 0  8.82352941176989 -2.5 0  8.960784313730265 -2.5 0  9.098039215690642 -2.5 0  9.235294117651017 -2.5 0  9.372549019611395 -2.5 0  9.50980392157177 -2.5 0  9.647058823532147 -2.5 0  9.784313725492522 -2.5 0  9.921568627452897 -2.5 0  10.05882352941327 -2.5 0  10.19607843137365 -2.5 0  10.33333333333402 -2.5 0  10.4705882352944 -2.5 0  10.60784313725478 -2.5 0  10.74509803921515 -2.5 0  10.88235294117553 -2.5 0  11.0196078431359 -2.5 0  11.15686274509628 -2.5 0  11.29411764705665 -2.5 0  11.43137254901703 -2.5 0  11.56862745097915 -2.5 0  11.70588235294301 -2.5 0  11.84313725490686 -2.5 0  11.98039215687072 -2.5 0  12.11764705883209 -2.5 0  12.25490196079247 -2.5 0  12.39215686275285 -2.5 0  12.52941176471322 -2.5 0  12.6666666666736 -2.5 0  12.80392156863397 -2.5 0  12.94117647059435 -2.5 0  13.07843137255473 -2.5 0  13.2156862745151 -2.5 0  13.35294117647548 -2.5 0  13.49019607843586 -2.5 0  13.62745098039623 -2.5 0  13.76470588235661 -2.5 0  13.90196078431699 -2.5 0  14.03921568627736 -2.5 0  14.17647058823774 -2.5 0  14.31372549019812 -2.5 0  14.45098039215849 -2.5 0  14.58823529411887 -2.5 0  14.72549019607925 -2.5 0  14.86274509803962 -2.5 0  15.20270270270254 -2.5 0  15.40540540540509 -2.5 0  15.60810810810763 -2.5 0  15.81081081081017 -2.5 0  16.01351351351227 -2.5 0  16.21621621621265 -2.5 0  16.41891891891279 -2.5 0  16.62162162161294 -2.5 0  16.82432432431308 -2.5 0  17.02702702701322 -2.5 0  17.22972972971337 -2.5 0  17.43243243241351 -2.5 0  17.63513513511365 -2.5 0  17.83783783781379 -2.5 0  18.04054054051394 -2.5 0  18.24324324321408 -2.5 0  18.44594594591422 -2.5 0  18.64864864861436 -2.5 0  18.85135135131451 -2.5 0  19.05405405401465 -2.5 0  19.25675675671479 -2.5 0  19.45945945941494 -2.5 0  19.66216216211508 -2.5 0  19.86486486481522 -2.5 0  20.06756756751536 -2.5 0  20.27027027021551 -2.5 0  20.47297297291565 -2.5 0  20.6756756756158 -2.5 0  20.87837837831594 -2.5 0  21.08108108101608 -2.5 0  21.28378378371622 -2.5 0  21.48648648641637 -2.5 0  21.68918918911651 -2.5 0  21.89189189181666 -2.5 0  22.0945945945168 -2.5 0  22.29729729721694 -2.5 0  22.49999999991778 -2.5 0  22.70270270262203 -2.5 0  22.90540540532697 -2.5 0  23.10810810803191 -2.5 0  23.31081081073686 -2.5 0  23.5135135134418 -2.5 0  23.71621621614674 -2.5 0  23.91891891885169 -2.5 0  24.12162162155663 -2.5 0  24.32432432426158 -2.5 0  24.52702702696652 -2.5 0  24.72972972967146 -2.5 0  24.93243243237641 -2.5 0  25.13513513508135 -2.5 0  25.3378378377863 -2.5 0  25.54054054049124 -2.5 0  25.74324324319618 -2.5 0  25.94594594590112 -2.5 0  26.14864864860607 -2.5 0  26.35135135131101 -2.5 0  26.55405405401596 -2.5 0  26.7567567567209 -2.5 0  26.95945945942584 -2.5 0  27.16216216213079 -2.5 0  27.36486486483573 -2.5 0  27.56756756754068 -2.5 0  27.77027027024562 -2.5 0  27.97297297295056 -2.5 0  28.1756756756555 -2.5 0  28.37837837836045 -2.5 0  28.5810810810654 -2.5 0  28.78378378377034 -2.5 0  28.98648648647528 -2.5 0  29.18918918918023 -2.5 0  29.39189189188517 -2.5 0  29.59459459459011 -2.5 0  29.79729729729506 -2.5 0  30 -3.000000000000001 0  30 -3.500000000000001 0  30 -4.000000000000001 0  30 -4.5 0  8 4.499999999999999 0  8 3.999999999999999 0  8 3.499999999999999 0  8 3 0  8.137254901963859 2.5 0  8.274509803926303 2.5 0  8.411764705886863 2.5 0  8.549019607849138 2.5 0  8.686274509809513 2.5 0  8.82352941176989 2.5 0  8.960784313730265 2.5 0  9.098039215690642 2.5 0  9.235294117651017 2.5 0  9.372549019611395 2.5 0  9.50980392157177 2.5 0  9.647058823532147 2.5 0  9.784313725492522 2.5 0  9.921568627452897 2.5 0  10.05882352941327 2.5 0  10.19607843137365 2.5 0  10.33333333333402 2.5 0  10.4705882352944 2.5 0  10.60784313725478 2.5 0  10.74509803921515 2.5 0  10.88235294117553 2.5 0  11.0196078431359 2.5 0  11.15686274509628 2.5 0  11.29411764705665 2.5 0  11.43137254901703 2.5 0  11.56862745097915 2.5 0  11.70588235294301 2.5 0  11.84313725490686 2.5 0  11.98039215687072 2.5 0  12.11764705883209 2.5 0  12.25490196079247 2.5 0  1
[...]
<PointData  Vectors="f_17"> 
<DataArray  type="Float64"  Name="f_17"  NumberOfComponents="3" format="ascii">1.0000001297937282e+00 0.0000000000000000e+00 0.0000000000000000e+00  1.0403117304249214e+00 0.0000000000000000e+00 0.0000000000000000e+00  1.0504145577613488e+00 0.0000000000000000e+00 0.0000000000000000e+00  1.0740003628209769e+00 0.0000000000000000e+00 0.0000000000000000e+00  1.0936159246493729e+00 0.0000000000000000e+00 0.0000000000000000e+00  1.0640240746712430e+00 0.0000000000000000e+00 0.0000000000000000e+00  1.0406019737123355e+00 0.0000000000000000e+00 0.0000000000000000e+00  1.0000001297937282e+00 0.0000000000000000e+00 0.0000000000000000e+00  1.0185149329142862e+00 -5.1278287658284544e-02 0.0000000000000000e+00  9.9677943684527137e-01 -2.3495590714667648e-02 0.0000000000000000e+00  9.9001367985835032e-01 2.6374685278513919e-02 0.0000000000000000e+00  1.1554093369641851e+00 2.7457650033734321e-02 0.0000000000000000e+00  1.1082696853938430e+00 -7.5116789684258695e-02 0.0000000000000000e+00  1.0242928366393178e+00 5.0386047838771243e-02 0.0000000000000000e+00  0.0000000000000000e+00 0.0000000000000000e+00 0.0000000000000000e+00  0.0000000000000000e+00 0.0000000000000000e+00 0.0000000000000000e+00  1.0000001297937282e+00 0.0000000000000000e+00 0.0000000000000000e+00  9.9927614141013277e-01 0.0000000000000000e+00 0.0000000000000000e+00  9.9864878996310869e-01 0.0000000000000000e+00 0.0000000000000000e+00  1.0006308766519627e+00 0.0000000000000000e+00 0.0000000000000000e+00  1.0003215883100891e+00 0.0000000000000000e+00 0.0000000000000000e+00  1.0011577675709808e+00 0.0000000000000000e+00 0.0000000000000000e+00  1.0013303195968004e+00 0.0000000000000000e+00 0.0000000000000000e+00  1.0015081762039637e+00 0.0000000000000000e+00 0.0000000000000000e+00  1.0022476424143756e+00 0.0000000000000000e+00 0.0000000000000000e+00  1.0033841078849779e+00 0.0000000000000000e+00 0.0000000000000000e+00  1.0044730431750832e+00 0.0000000000000000e+00 0.0000000000000000e+00  1.0058766435849118e+00 0.0000000000000000e+00 0.0000000000000000e+00  1.0080809525378032e+00 0.0000000000000000e+00 0.0000000000000000e+00  1.0103544011626551e+00 0.0000000000000000e+00 0.0000000000000000e+00  1.0141706138597288e+00 0.0000000000000000e+00 0.0000000000000000e+00  1.0157844191656729e+00 0.0000000000000000e+00 0.0000000000000000e+00  1.0202083894322145e+00 0.0000000000000000e+00 0.0000000000000000e+00  1.0268612408195736e+00 0.0000000000000000e+00 0.0000000000000000e+00  1.0322580318648042e+00 0.0000000000000000e+00 0.0000000000000000e+00  1.0485494237960271e+00 0.0000000000000000e+00 0.0000000000000000e+00  1.0573708725089692e+00 0.0000000000000000e+00 0.0000000000000000e+00  1.0657739843261820e+00 0.0000000000000000e+00 0.0000000000000000e+00  1.0747346371951005e+00 0.0000000000000000e+00 0.0000000000000000e+00  1.0820886915709260e+00 0.0000000000000000e+00 0.0000000000000000e+00  1.0884695358443042e+00 0.0000000000000000e+00 0.0000000000000000e+00  1.0938621453882396e+00 0.0000000000000000e+00 0.0000000000000000e+00  1.0958648009090401e+00 0.0000000000000000e+00 0.0000000000000000e+00  1.0960965586333389e+00 0.0000000000000000e+00 0.0000000000000000e+00  1.0937268202921437e+00 0.0000000000000000e+00 0.0000000000000000e+00  1.0896993280395919e+00 0.0000000000000000e+00 0.0000000000000000e+00  1.0832006560956526e+00 0.0000000000000000e+00 0.0000000000000000e+00  1.0771630883367891e+00 0.0000000000000000e+00 0.0000000000000000e+00  1.0711484615399649e+00 0.0000000000000000e+00 0.0000000000000000e+00  1.0661287141037181e+00 0.0000000000000000e+00 0.0000000000000000e+00  1.0631806137970665e+00 0.0000000000000000e+00 0.0000000000000000e+00  1.0620505091030561e+00 0.0000000000000000e+00 0.0000000000000000e+00  1.0627666429824960e+00 0.0000000000000000e+00 0.0000000000000000e+00  1.0642721794961694e+00 0.0000000000000000e+00 0.0000000000000000e+00  1.0656081155163122e+00 0.0000000000000000e+00 0.0000000000000000e+00  1.0672674840861613e+00 0.0000000000000000e+00 0.0000000000000000e+00  1.0675617101067962e+00 0.0000000000000000e+00 0.0000000000000000e+00  1.0645944891072168e+00 0.0000000000000000e+00 0.0000000000000000e+00  1.0605026917908562e+00 0.0000000000000000e+00 0.0000000000000000e+00  1.0549040820125806e+00 0.0000000000000000e+00 0.0000000000000000e+00  1.0488613473341319e+00 0.0000000000000000e+00 0.0000000000000000e+00  1.0438938265003808e+00 0.0000000000000000e+00 0.0000000000000000e+00  1.0401171290114406e+00 0.0000000000000000e+00 0.0000000000000000e+00  1.0386664675357797e+00 0.0000000000000000e+00 0.0000000000000000e+00  1.0401053778424367e+00 0.0000000000000000e+00 0.0000000000000000e+00  1.0430612068530301e+00 0.0000000000000000e+00 0.0000000000000000e+00  1.0474376620390231e+00 0.0000000000000000e+00 0.0000000000000000e+00  1.0539633660826879e+00 0.0000000000000000e+00 0.0000000000000000e+00  1.0587617682876604e+00 0.0000000000000000e+00 0.0000000000000000e+00  1.0616973562584915e+00 0.0000000000000000e+00 0.0000000000000000e+00  1.0632431808275278e+00 0.0000000000000000e+00 0.0000000000000000e+00  1.0615670744841286e+00 0.0000000000000000e+00 0.0000000000000000e+00  1.0577806880565725e+00 0.0000000000000000e+00 0.0000000000000000e+00  1.0544227295071955e+00 0.0000000000000000e+00 0.0000000000000000e+00  1.0502102815176251e+00 0.0000000000000000e+00 0.0000000000000000e+00  1.0469591319766247e+00 0.0000000000000000e+00 0.0000000000000000e+00  1.0462608328392673e+00 0.0000000000000000e+00 0.0000000000000000e+00  1.0469079047940737e+00 0.0000000000000000e+00 0.0000000000000000e+00  1.0494443792635082e+00 0.0000000000000000e+00 0.0000000000000000e+00  1.0540242151176826e+00 0.0000000000000000e+00 0.0000000000000000e+00  1.0581367451493389e+00 0.0000000000000000e+00 0.0000000000000000e+00  1.0613271710494918e+00 0.0000000000000000e+00 0.0000000000000000e+00  1.0656210884643804e+00 0.0000000000000000e+00 0.0000000000000000e+00  1.0658753698857319e+00 0.0000000000000000e+00 0.0000000000000000e+00  1.0624540945366430e+00 0.0000000000000000e+00 0.0000000000000000e+00  1.0585734385198906e+00 0.0000000000000000e+00 0.0000000000000000e+00  1.0557121920668213e+00 0.0000000000000000e+00 0.0000000000000000e+00  1.0521462764921627e+00 0.0000000000000000e+00 0.0000000000000000e+00  1.0500548863643753e+00 0.0000000000000000e+00 0.0000000000000000e+00  1.0509015683911280e+00 0.0000000000000000e+00 0.0000000000000000e+00  1.0534323954582481e+00 0.0000000000000000e+00 0.0000000000000000e+00  1.0576488611309631e+00 0.0000000000000000e+00 0.0000000000000000e+00  1.0619790688862440e+00 0.0000000000000000e+00 0.0000000000000000e+00  1.0648268215200303e+00 0.0000000000000000e+00 0.0000000000000000e+00  1.0660962872765116e+00 0.0000000000000000e+00 0.0000000000000000e+00  1.0657263390053962e+00 0.0000000000000000e+00 0.0000000000000000e+00  1.0637313873344241e+00 0.0000000000000000e+00 0.0000000000000000e+00  1.0602695480238007e+00 0.0000000000000000e+00 0.0000000000000000e+00  1.0571864911015827e+00 0.0000000000000000e+00 0.0000000000000000e+00  1.0549320377125362e+00 0.0000000000000000e+00 0.0000000000000000e+00  1.0540383223834215e+00 0.0000000000000000e+00 0.0000000000000000e+00  1.0557119967968276e+00 0.0000000000000000e+00 0.0000000000000000e+00  1.0591860522407872e+00 0.0000000000000000e+00 0.0000000000000000e+00  1.0644790399735240e+00 0.0000000000000000e+00 0.0000000000000000e+00  1.0691782129325382e+00 0.0000000000000000e+00 0.0000000000000000e+00  1.0737757342819092e+00 0.0000000000000000e+00 0.0000000000000000e+00  1.0765681619163161e+00 0.0000000000000000e+00 0.0000000000000000e+00  1.0783033941509401e+00 0.0000000000000000e+00 0.0000000000000000e+00  1.0777150913931832e+00 0.0000000000000000e+00 0.0000000000000000e+00  1.0767005390047801e+00 0.0000000000000000e+00 0.0000000000000000e+00  1.0745901338197730e+00 0.0000000000000000e+00 0.0000000000000000e+00  1.0739374747922898e+00 5.3019901153970026e-04 0.0000000000000000e+00  1.0727672565650626e+00 1.6573237342177973e-03 0.0000000000000000e+00  1.0697359315805224e+00 4.3057573867853844e-03 0.0000000000000000e+00  1.0615472276826381e+00 9.7347633032254244e-03 0.0000000000000000e+00  1.0480046092238930e+00 1.8901107230362670e-02 0.0000000000000000e+00  1.0241263586747780e+00 3.4608773172244450e-02 0.0000000000000000e+00  9.8676462200432657e-01 5.4953627231967166e-02 0.0000000000000000e+00  9.3356476209785288e-01 8.0936543251161855e-02 0.0000000000000000e+00  8.6649467602575747e-01 1.0492181710994705e-01 0.0000000000000000e+00  7.9749975512201032e-01 1.1556143849611773e-01 0.0000000000000000e+00  7.4097724385621055e-01 1.2272128853659257e-01 0.0000000000000000e+00  7.1477631337265224e-01 1.3593537668988187e-01 0.0000000000000000e+00  7.4537337189681274e-01 1.6103332239537532e-01 0.0000000000000000e+00  8.4152553235849770e-01 1.8700133636371180e-01 0.0000000000000000e+00  9.7243163183563885e-01 2.0875791092931217e-01 0.0000000000000000e+00  1.0908326877768686e+00 1.9689855537409720e-01 0.0000000000000000e+00  1.1554606853223564e+00 1.5892252382201918e-01 0.0000000000000000e+00  1.1634878736075553e+00 1.1456405184813429e-01 0.0000000000000000e+00  1.1423384631068236e+00 7.4745624962068033e-02 0.0000000000000000e+00  1.1203790697410019e+00 4.5795180398753702e-02 0.0000000000000000e+00  1.1066508482774293e+00 2.7763738862190027e-02 0.0000000000000000e+00  1.0997767889464816e+00 1.6051421653704316e-02 0.0000000000000000e+00  1.0954553666302238e+00 7.2002491969008703e-03 0.0000000000000000e+00  1.0857402493262327e+00 0.0000000000000000e+00 0.0000000000000000e+00  1.0775228224193936e+00 0.0000000000000000e+00 0.0000000000000000e+00  1.0699851853115128e+00 0.0000000000000000e+00 0.0000000000000000e+00  1.0648144516344100e+00 0.0000000000000000e+00 0.0000000000000000e+00  1.0614512104618021e+00 0.0000000000000000e+00 0.0000000000000000e+00  1.0609899560656340e+00 0.0000000000000000e+00 0.0000000000000000e+00  1.0624927745120216e+00 0.0000000000000000e+00 0.0000000000000000e+00  1.0653240747948083e+00 0.0000000000000000e+00 0.0000000000000000e+00  1.0673739178914667e+00 0.0000000000000000e+00 0.0000000000000000e+00  1.0689025780013928e+00 0.0000000000000000e+00 0.0000000000000000e+00  1.0686324734294415e+00 0.0000000000000000e+00 0.0000000000000000e+00  1.0665322228055447e+00 0.0000000000000000e+00 0.0000000000000000e+00  1.0628718215137722e+00 0.0000000000000000e+00 0.0000000000000000e+00  1.0591694747882365e+00 0.0000000000000000e+00 0.0000000000000000e+00  1.0546770378472536e+00 0.0000000000000000e+00 0.0000000000000000e+00  1.0523435707397393e+00 0.0000000000000000e+00 0.0000000000000000e+00  1.0503945607081371e+00 0.0000000000000000e+00 0.0000000000000000e+00  1.0510574211576673e+00 0.0000000000000000e+00 0.0000000000000000e+00  1.0532892992774245e+00 0.0000000000000000e+00 0.0000000000000000e+00  1.0572830738713270e+00 0.0000000000000000e+00 0.0000000000000000e+00  1.0610149979886305e+00 0.0000000000000000e+00 0.0000000000000000e+00  1.0636052471672435e+00 0.0000000000000000e+00 0.0000000000000000e+00  1.0649371976037116e+00 0.0000000000000000e+00 0.0000000000000000e+00  1.0607478498220013e+00 0.0000000000000000e+00 0.0000000000000000e+00  1.0569127889247458e+00 0.0000000000000000e+00 0.0000000000000000e+00  1.0519290393183549e+00 0.0000000000000000e+00 0.0000000000000000e+00  1.0491046979677743e+00 0.0000000000000000e+00 0.0000000000000000e+00  1.0485897675637637e+00 0.0000000000000000e+00 0.0000000000000000e+00  1.0488274479603465e+00 0.0000000000000000e+00 0.0000000000000000e+00  1.0490950209903875e+00 0.0000000000000000e+00 0.0000000000000000e+00  1.0530355173998027e+00 0.0000000000000000e+00 0.0000000000000000e+00  1.0575426651604607e+00 0.0000000000000000e+00 0.0000000000000000e+00  1.0608792685329758e+00 0.0000000000000000e+00 0.0000000000000000e+00  1.0634298036387304e+00 0.0000000000000000e+00 0.0000000000000000e+00  1.0638791034452015e+00 0.0000000000000000e+00 0.0000000000000000e+00  1.0613496762948824e+00 0.0000000000000000e+00 0.0000000000000000e+00  1.0576786553330277e+00 0.0000000000000000e+00 0.0000000000000000e+00  1.0527277492010503e+00 0.0000000000000000e+00 0.0000000000000000e+00  1.0468781237963993e+00 0.0000000000000000e+00 0.0000000000000000e+00  1.0433827392757535e+00 0.0000000000000000e+00 0.0000000000000000e+00  1.0416698280661467e+00 0.0000000000000000e+00 0.0000000000000000e+00  1.0412879071792287e+00 0.0000000000000000e+00 0.0000000000000000e+00  1.0440861014678642e+00 0.0000000000000000e+00 0.0000000000000000e+00  1.0483791695113882e+00 0.0000000000000000e+00 0.0000000000000000e+00  1.0524322316175831e+00 0.0000000000000000e+00 0.0000000000000000e+00  1.0575393242641711e+00 0.0000000000000000e+00 0.0000000000000000e+00  1.0612382087033401e+00 0.0000000000000000e+00 0.0000000000000000e+00  1.0619472839738531e+00 0.0000000000000000e+00 0.0000000000000000e+00  1.0606323492052296e+00 0.0000000000000000e+00 0.0000000000000000e+00  1.0572405972606287e+00 0.0000000000000000e+00 0.0000000000000000e+00  1.0521626999198561e+00 0.0000000000000000e+00 0.0000000000000000e+00  1.0473544428297465e+00 0.0000000000000000e+00 0.0000000000000000e+00  1.0435492473388353e+00 0.0000000000000000e+00 0.0000000000000000e+00  1.0414023889635902e+00 0.0000000000000000e+00 0.0000000000000000e+00  1.0424341724436683e+00 0.0000000000000000e+00 0.0000000000000000e+00  1.0447578725857887e+00 0.0000000000000000e+00 0.0000000000000000e+00  1.0496170133804659e+00 0.0000000000000000e+00 0.0000000000000000e+00  1.0566196350541270e+00 0.0000000000000000e+00 0.0000000000000000e+00  1.0641245497564760e+00 0.0000000000000000e+00 0.0000000000000000e+00  1.0708648850388631e+00 0.0000000000000000e+00 0.0000000000000000e+00  1.0762891770319813e+00 0.0000000000000000e+00 0.0000000000000000e+00  1.0808319411960010e+00 0.0000000000000000e+00 0.0000000000000000e+00  1.0847814040400507e+00 0.0000000000000000e+00 0.0000000000000000e+00  1.0867517079621516e+00 0.0000000000000000e+00 0.0000000000000000e+00  1.0876494622193060e+00 0.0000000000000000e+00 0.0000000000000000e+00  1.0893002070869655e+00 0.0000000000000000e+00 0.0000000000000000e+00  1.0887941464398314e+00 0.0000000000000000e+00 0.0000000000000000e+00  1.0886030553645809e+00 0.0000000000000000e+00 0.0000000000000000e+00  1.0873103701068567e+00 0.0000000000000000e+00 0.0000000000000000e+00  1.0843619197160466e+00 0.0000000000000000e+00 0.0000000000000000e+00  1.0804370667140424e+00 0.0000000000000000e+00 0.0000000000000000e+00  1.0756703748149794e+00 0.0000000000000000e+00 0.0000000000000000e+00  1.0698452026409508e+00 0.0000000000000000e+00 0.0000000000000000e+00  1.0625333166815683e+00 0.0000000000000000e+00 0.0000000000000000e+00  1.0557045756159189e+00 0.0000000000000000e+00 0.0000000000000000e+00  1.0480584312583536e+00 0.0000000000000000e+00 0.0000000000000000e+00  1.0332716895842566e+00 0.0000000000000000e+00 0.0000000000000000e+00  1.0267953814575010e+00 0.0000000000000000e+00 0.0000000000000000e+00  1.0216279332793694e+00 0.0000000000000000e+00 0.0000000000000000e+00  1.0169511925377828e+00 0.0000000000000000e+00 0.0000000000000000e+00  1.0131396321635295e+00 0.0000000000000000e+00 0.0000000000000000e+00  1.0101317966797405e+00 0.0000000000000000e+00 0.0000000000000000e+00  1.0078580357377964e+00 0.0000000000000000e+00 0.0000000000000000e+00  1.0056790273050165e+00 0.0000000000000000e+00 0.0000000000000000e+00  1.0041696010755243e+00 0.0000000000000000e+00 0.0000000000000000e+00  1.0031460482503129e+00 0.0000000000000000e+00 0.0000000000000000e+00  1.0019389422054927e+00 0.0000000000000000e+00 0.0000000000000000e+00  1.0017410085347955e+00 0.0000000000000000e+00 0.0000000000000000e+00  1.0006209011482474e+00 0.0000000000000000e+00 0.0000000000000000e+00  1.0005303201410825e+00 0.0000000000000000e+00 0.0000000000000000e+00  1.0000301200116550e+00 0.0000000000000000e+00 0.0000000000000000e+00  1.0006275477656958e+00 0.0000000000000000e+00 0.0000000000000000e+00  1.0003088572654886e+00 0.0000000000000000e+00 0.0000000000000000e+00  9.9980670965306162e-01 0.0000000000000000e+00 0.0000000000000000e+00  1.0000001297937282e+00 0.0000000000000000e+00 0.0000000000000000e+00  1.0000001297937282e+00 0.0000000000000000e+00 0.0000000000000000e+00  1.0000001297937282e+00 0.0000000000000000e+00 0.0000000000000000e+00  1.0000001297937282e+00 0.0000000000000000e+00 0.0000000000000000e+00  1.0000001297937282e+00 0.0000000000000000e+00 0.0000000000000000e+00  1.0000001297937282e+00 0.0000000000000000e+00 0.0000000000000000e+00  1.0000001297937282e+00 0.0000000000000000e+00 0.0000000000000000e+00  1.0000001297937282e+00 0.0000000000000000e+00 0.0000000000000000e+00  1.0000001297937282e+00 0.0000000000000000e+00 0.0000000000000000e+00  1.0000001297937282e+00 0.0000000000000000e+00 0.0000000000000000e+00  1.0000001297937282e+00 0.0000000000000000e+00 0.0000000000000000e+00  1.0000001297937282e+00 0.0000000000000000e+00 0.0000000000000000e+00  1.0000001297937282e+00 0.0000000000000000e+00 0.0000000000000000e+00  1.0000001297937282e+00 0.0000000000000000e+00 0.0000000000000000e+00  1.0000001297937282e+00 0.0000000000000000e+00 0.0000000000000000e+00  1.0000001297937282e+00 0.0000000000000000e+00 0.0000000000000000e+00  1.0000001297937282e+00 0.0000000000000000e+00 0.0000000000000000e+00  1.0000001297937282e+00 0.0000000000000000e+00 0.0000000000000000e+00  1.0000001297937282e+00 0.0000000000000000e+00 0.0000000000000000e+00  1.0000001297937282e+00 0.0000000000000000e+00 0.0000000000000000e+00  1.0396510015475069e+00 -9.5809855633288699e-03 0.0000000000000000e+00  1.0364554327335869e+00 -1.9314378175962453e-02 0.0000000000000000e+00  1.0338917222240496e+00 -2.9658731416547384e-02 0.0000000000000000e+00  1.0276649316928845e+00 -4.0455913011933443e-02 0.0000000000000000e+00  1.0210905368353478e+00 -5.5212430681962812e-02 0.0000000000000000e+00  1.0253637500906190e+00 -5.8835982041092513e-02 0.0000000000000000e+00  1.0293023900564120e+00 -6.2551734218791677e-02 0.0000000000000000e+00  1.0342389244687189e+00 -6.6011155831778884e-02 0.0000000000000000e+00  1.0394718944197354e+00 -6.9345230468748048e-02 0.0000000000000000e+00  1.0453382733258429e+00 -7.2307504838257541e-02 0.0000000000000000e+00  1.0517996483518299e+00 -7.4936291316062553e-02 0.0000000000000000e+00  1.0587357188885438e+00 -7.6943123491604468e-02 0.0000000000000000e+00  1.0661967620971031e+00 -7.8433595099820064e-02 0.0000000000000000e+00  1.0738327587467276e+00 -7.9077390614829907e-02 0.0000000000000000e+00  1.0818217307650237e+00 -7.9089465402536821e-02 0.0000000000000000e+00  1.0899039097288494e+00 -7.8343025403372138e-02 0.0000000000000000e+00  1.0981078851715915e+00 -7.6560746399489010e-02 0.0000000000000000e+00  1.1060173021875486e+00 -7.3868475379623294e-02 0.0000000000000000e+00  1.1137108437627385e+00 -7.0461507945582494e-02 0.0000000000000000e+00  1.1210470047509506e+00 -6.6238176275044747e-02 0.0000000000000000e+00  1.1278347831852753e+00 -6.1243107213855202e-02 0.0000000000000000e+00  1.1340864057444828e+00 -5.5591038590149744e-02 0.0000000000000000e+00  1.1397170893966242e+00 -4.9390234475115730e-02 0.0000000000000000e+00  1.1447164452902234e+00 -4.2525446194373547e-02 0.0000000000000000e+00  1.1490381421400542e+00 -3.5366027101117678e-02 0.0000000000000000e+00  1.1526603396981674e+00 -2.7631133445249968e-02 0.0000000000000000e+00  1.1554304438776988e+00 -1.9474914546241593e-02 0.0000000000000000e+00  1.1575241172391733e+00 -1.1031895716529400e-02 0.0000000000000000e+00  1.1586434497231199e+00 -2.3164593561636401e-03 0.0000000000000000e+00  1.1588559315478413e+00 6.6715509206596016e-03 0.0000000000000000e+00  1.1580250426378111e+00 1.5821846084972904e-02 0.0000000000000000e+00  1.1560710115415884e+00 2.4945890349536058e-02 0.0000000000000000e+00  1.1530027905929325e+00 3.4081387375450016e-02 0.0000000000000000e+00  1.1486939698492280e+00 4.3033602425116488e-02 0.0000000000000000e+00  1.1431984505992383e+00 5.1525806194660448e-02 0.0000000000000000e+00  1.1365195961345980e+00 5.9420592547798121e-02 0.00