<?xml version="1.0"?>
<VTKFile type="UnstructuredGrid"  version="0.1"  >
<UnstructuredGrid>
<Piece  NumberOfPoints="10199" NumberOfCells="20110">
<Points>
<DataArray  type="Float64"  NumberOfComponents="3"  format="ascii">0 -5 0  8 -5 0  30 -5 0  40 -5 0  40 5 0  30 5 0  8 5 0  0 5 0  8 -2.5 0  15 -2.5 0  30 -2.5 0  30 2.5 0  15 2.5 0  8 2.5 0  10 0.5 0  10 -0.5 0  0 0 0  0.4210526315780956 -5 0  0.8421052631563433 -5 0  1.263157894734281 -5 0  1.684210526311999 -5 0  2.105263157889717 -5 0  2.526315789467435 -5 0  2.947368421045153 -5 0  3.368421052622872 -5 0  3.78947368420059 -5 0  4.210526315779479 -5 0  4.631578947359537 -5 0  5.052631578939595 -5 0  5.473684210519653 -5 0  5.89473684209971 -5 0  6.315789473679768 -5 0  6.736842105259826 -5 0  7.157894736839884 -5 0  7.578947368419942 -5 0  8.407407407405314 -5 0  8.814814814810628 -5 0  9.222222222215942 -5 0  9.629629629621256 -5 0  10.03703703702657 -5 0  10.44444444443188 -5 0  10.8518518518372 -5 0  11.25925925924251 -5 0  11.66666666664783 -5 0  12.07407407405314 -5 0  12.48148148145846 -5 0  12.88888888886377 -5 0  13.29629629626908 -5 0  13.7037037036744 -5 0  14.11111111107971 -5 0  14.51851851848502 -5 0  14.92592592589034 -5 0  15.33333333329565 -5 0  15.74074074070096 -5 0  16.14814814810754 -5 0  16.55555555551614 -5 0  16.96296296292474 -5 0  17.37037037033335 -5 0  17.77777777774195 -5 0  18.18518518515056 -5 0  18.59259259255916 -5 0  18.99999999996776 -5 0  19.40740740737636 -5 0  19.81481481478497 -5 0  20.22222222219357 -5 0  20.62962962960217 -5 0  21.03703703701077 -5 0  21.44444444441937 -5 0  21.85185185182797 -5 0  22.25925925923657 -5 0  22.66666666664518 -5 0  23.07407407405378 -5 0  23.48148148146238 -5 0  23.88888888887098 -5 0  24.29629629627958 -5 0  24.70370370368818 -5 0  25.11111111109678 -5 0  25.51851851850539 -5 0  25.92592592591399 -5 0  26.33333333332259 -5 0  26.74074074073119 -5 0  27.14814814813979 -5 0  27.55555555554839 -5 0  27.96296296295699 -5 0  28.3703703703656 -5 0  28.7777777777742 -5 0  29.1851851851828 -5 0  29.5925925925914 -5 0  30.41666666667852 -5 0  30.83333333335704 -5 0  31.25000000003556 -5 0  31.66666666671408 -5 0  32.08333333338936 -5 0  32.50000000005308 -5 0  32.9166666667168 -5 0  33.33333333338052 -5 0  33.75000000004424 -5 0  34.16666666670795 -5 0  34.58333333337167 -5 0  35.00000000003539 -5 0  35.41666666669911 -5 0  35.83333333336282 -5 0  36.25000000002654 -5 0  36.66666666669026 -5 0  37.08333333335398 -5 0  37.50000000001769 -5 0  37.91666666668141 -5 0  38.33333333334513 -5 0  38.75000000000885 -5 0  39.16666666667257 -5 0  39.58333333333628 -5 0  40 -4.583333333332821 0  40 -4.166666666665642 0  40 -3.74999999999855 0  40 -3.333333333333135 0  40 -2.916666666667806 0  40 -2.500000000002478 0  40 -2.083333333337148 0  40 -1.666666666671818 0  40 -1.250000000006488 0  40 -0.8333333333405228 0  40 -0.4166666666733416 0  40 -6.163070054299169e-12 0  40 0.4166666666610173 0  40 0.8333333333281976 0  40 1.249999999995378 0  40 1.666666666662558 0  40 2.083333333329739 0  40 2.499999999996919 0  40 2.916666666664099 0  40 3.33333333333128 0  40 3.74999999999846 0  40 4.166666666665641 0  40 4.583333333332821 0  39.58333333333628 5 0  39.16666666667256 5 0  38.75000000000885 5 0  38.33333333334513 5 0  37.91666666668141 5 0  37.50000000001769 5 0  37.08333333335398 5 0  36.66666666669025 5 0  36.25000000002654 5 0  35.83333333336282 5 0  35.41666666669911 5 0  35.00000000003539 5 0  34.58333333337167 5 0  34.16666666670795 5 0  33.75000000004424 5 0  33.33333333338052 5 0  32.9166666667168 5 0  32.50000000005308 5 0  32.08333333338936 5 0  31.66666666671408 5 0  31.25000000003556 5 0  30.83333333335704 5 0  30.41666666667852 5 0  29.59259259259259 5 0  29.18518518518519 5 0  28.77777777777778 5 0  28.37037037037037 5 0  27.96296296296296 5 0  27.55555555555556 5 0  27.14814814814815 5 0  26.74074074074074 5 0  26.33333333333333 5 0  25.92592592592593 5 0  25.51851851851852 5 0  25.11111111111111 5 0  24.7037037037037 5 0  24.2962962962963 5 0  23.88888888888889 5 0  23.48148148148148 5 0  23.07407407407408 5 0  22.66666666666667 5 0  22.25925925925926 5 0  21.85185185185185 5 0  21.44444444444445 5 0  21.03703703703704 5 0  20.62962962962963 5 0  20.22222222222222 5 0  19.81481481481482 5 0  19.40740740740741 5 0  19 5 0  18.5925925925926 5 0  18.18518518518519 5 0  17.77777777777778 5 0  17.37037037037037 5 0  16.96296296296296 5 0  16.55555555555556 5 0  16.14814814814815 5 0  15.74074074074074 5 0  15.33333333333333 5 0  14.92592592592593 5 0  14.51851851851852 5 0  14.11111111111111 5 0  13.70370370370371 5 0  13.2962962962963 5 0  12.88888888888889 5 0  12.48148148148148 5 0  12.07407407407408 5 0  11.66666666666667 5 0  11.25925925925926 5 0  10.85185185185185 5 0  10.44444444444445 5 0  10.03703703703704 5 0  9.629629629629633 5 0  9.222222222222221 5 0  8.814814814814817 5 0  8.407407407407408 5 0  7.5789473684193 5 0  7.157894736838599 5 0  6.73684210526082 5 0  6.315789473684795 5 0  5.894736842108769 5 0  5.473684210532742 5 0  5.052631578956715 5 0  4.631578947380689 5 0  4.210526315804662 5 0  3.789473684226299 5 0  3.368421052645599 5 0  2.947368421064898 5 0  2.526315789484198 5 0  2.105263157903499 5 0  1.6842105263228 5 0  1.2631578947421 5 0  0.8421052631613994 5 0  0.4210526315806993 5 0  0 4.545454545454545 0  0 4.09090909090909 0  0 3.636363636363634 0  0 3.18181818181818 0  0 2.727272727272726 0  0 2.272727272727271 0  0 1.818181818181817 0  0 1.363636363636363 0  0 0.9090909090909092 0  0 0.454545454545455 0  0 -0.4545454545450807 0  0 -0.9090909090895867 0  0 -1.363636363633713 0  0 -1.818181818177841 0  0 -2.272727272723127 0  0 -2.727272727269273 0  0 -3.181818181815419 0  0 -3.636363636361564 0  0 -4.090909090907709 0  0 -4.545454545453855 0  8 -4.499999999999999 0  8 -3.999999999999999 0  8 -3.499999999999999 0  8 -3 0  8.137254901963859 -2.5 0  8.274509803926303 -2.5 0  8.411764705886863 -2.5 0  8.549019607849138 -2.5 0  8.686274509809513 -2.5 0  8.82352941176989 -2.5 0  8.960784313730265 -2.5 0  9.098039215690642 -2.5 0  9.235294117651017 -2.5 0  9.372549019611395 -2.5 0  9.50980392157177 -2.5 0  9.647058823532147 -2.5 0  9.784313725492522 -2.5 0  9.921568627452897 -2.5 0  10.05882352941327 -2.5 0  10.19607843137365 -2.5 0  10.33333333333402 -2.5 0  10.4705882352944 -2.5 0  10.60784313725478 -2.5 0  10.74509803921515 -2.5 0  10.88235294117553 -2.5 0  11.0196078431359 -2.5 0  11.15686274509628 -2.5 0  11.29411764705665 -2.5 0  11.43137254901703 -2.5 0  11.56862745097915 -2.5 0  11.70588235294301 -2.5 0  11.84313725490686 -2.5 0  11.98039215687072 -2.5 0  12.11764705883209 -2.5 0  12.25490196079247 -2.5 0  12.39215686275285 -2.5 0  12.52941176471322 -2.5 0  12.6666666666736 -2.5 0  12.80392156863397 -2.5 0  12.94117647059435 -2.5 0  13.07843137255473 -2.5 0  13.2156862745151 -2.5 0  13.35294117647548 -2.5 0  13.49019607843586 -2.5 0  13.62745098039623 -2.5 0  13.76470588235661 -2.5 0  13.90196078431699 -2.5 0  14.03921568627736 -2.5 0  14.17647058823774 -2.5 0  14.31372549019812 -2.5 0  14.45098039215849 -2.5 0  14.58823529411887 -2.5 0  14.72549019607925 -2.5 0  14.86274509803962 -2.5 0  15.20270270270254 -2.5 0  15.40540540540509 -2.5 0  15.60810810810763 -2.5 0  15.81081081081017 -2.5 0  16.01351351351227 -2.5 0  16.21621621621265 -2.5 0  16.41891891891279 -2.5 0  16.62162162161294 -2.5 0  16.82432432431308 -2.5 0  17.02702702701322 -2.5 0  17.22972972971337 -2.5 0  17.43243243241351 -2.5 0  17.63513513511365 -2.5 0  17.83783783781379 -2.5 0  18.04054054051394 -2.5 0  18.24324324321408 -2.5 0  18.44594594591422 -2.5 0  18.64864864861436 -2.5 0  18.85135135131451 -2.5 0  19.05405405401465 -2.5 0  19.25675675671479 -2.5 0  19.45945945941494 -2.5 0  19.66216216211508 -2.5 0  19.86486486481522 -2.5 0  20.06756756751536 -2.5 0  20.27027027021551 -2.5 0  20.47297297291565 -2.5 0  20.6756756756158 -2.5 0  20.87837837831594 -2.5 0  21.08108108101608 -2.5 0  21.28378378371622 -2.5 0  21.48648648641637 -2.5 0  21.68918918911651 -2.5 0  21.89189189181666 -2.5 0  22.0945945945168 -2.5 0  22.29729729721694 -2.5 0  22.49999999991778 -2.5 0  22.70270270262203 -2.5 0  22.90540540532697 -2.5 0  23.10810810803191 -2.5 0  23.31081081073686 -2.5 0  23.5135135134418 -2.5 0  23.71621621614674 -2.5 0  23.91891891885169 -2.5 0  24.12162162155663 -2.5 0  24.32432432426158 -2.5 0  24.52702702696652 -2.5 0  24.72972972967146 -2.5 0  24.93243243237641 -2.5 0  25.13513513508135 -2.5 0  25.3378378377863 -2.5 0  25.54054054049124 -2.5 0  25.74324324319618 -2.5 0  25.94594594590112 -2.5 0  26.14864864860607 -2.5 0  26.35135135131101 -2.5 0  26.55405405401596 -2.5 0  26.7567567567209 -2.5 0  26.95945945942584 -2.5 0  27.16216216213079 -2.5 0  27.36486486483573 -2.5 0  27.56756756754068 -2.5 0  27.77027027024562 -2.5 0  27.97297297295056 -2.5 0  28.1756756756555 -2.5 0  28.37837837836045 -2.5 0  28.5810810810654 -2.5 0  28.78378378377034 -2.5 0  28.98648648647528 -2.5 0  29.18918918918023 -2.5 0  29.39189189188517 -2.5 0  29.59459459459011 -2.5 0  29.79729729729506 -2.5 0  30 -3.000000000000001 0  30 -3.500000000000001 0  30 -4.000000000000001 0  30 -4.5 0  8 4.499999999999999 0  8 3.999999999999999 0  8 3.499999999999999 0  8 3 0  8.137254901963859 2.5 0  8.274509803926303 2.5 0  8.411764705886863 2.5 0  8.549019607849138 2.5 0  8.686274509809513 2.5 0  8.82352941176989 2.5 0  8.960784313730265 2.5 0  9.098039215690642 2.5 0  9.235294117651017 2.5 0  9.372549019611395 2.5 0  9.50980392157177 2.5 0  9.647058823532147 2.5 0  9.784313725492522 2.5 0  9.921568627452897 2.5 0  10.05882352941327 2.5 0  10.19607843137365 2.5 0  10.33333333333402 2.5 0  10.4705882352944 2.5 0  10.60784313725478 2.5 0  10.74509803921515 2.5 0  10.88235294117553 2.5 0  11.0196078431359 2.5 0  11.15686274509628 2.5 0  11.29411764705665 2.5 0  11.43137254901703 2.5 0  11.56862745097915 2.5 0  11.70588235294301 2.5 0  11.84313725490686 2.5 0  11.98039215687072 2.5 0  12.11764705883209 2.5 0  12.25490196079247 2.5 0  1
[...]
<PointData  Vectors="f_17"> 
<DataArray  type="Float64"  Name="f_17"  NumberOfComponents="3" format="ascii">1.0000001334364894e+00 0.0000000000000000e+00 0.0000000000000000e+00  1.0496071439256640e+00 0.0000000000000000e+00 0.0000000000000000e+00  9.9605390337659216e-01 0.0000000000000000e+00 0.0000000000000000e+00  9.9787834041445178e-01 0.0000000000000000e+00 0.0000000000000000e+00  9.9796763178751080e-01 0.0000000000000000e+00 0.0000000000000000e+00  9.9628682268052804e-01 0.0000000000000000e+00 0.0000000000000000e+00  1.0489996876981638e+00 0.0000000000000000e+00 0.0000000000000000e+00  1.0000001334364894e+00 0.0000000000000000e+00 0.0000000000000000e+00  1.0222229085224706e+00 -6.0494643953316038e-02 0.0000000000000000e+00  1.1132184295285055e+00 7.0116325403436736e-02 0.0000000000000000e+00  1.0013934873295198e+00 5.7966339189121155e-04 0.0000000000000000e+00  1.0010699594391355e+00 -6.3182091352890720e-04 0.0000000000000000e+00  1.1118875041556617e+00 -6.9583038504334324e-02 0.0000000000000000e+00  1.0218283358722651e+00 6.0469850152056165e-02 0.0000000000000000e+00  0.0000000000000000e+00 0.0000000000000000e+00 0.0000000000000000e+00  0.0000000000000000e+00 0.0000000000000000e+00 0.0000000000000000e+00  1.0000001334364894e+00 0.0000000000000000e+00 0.0000000000000000e+00  9.9931230882452826e-01 0.0000000000000000e+00 0.0000000000000000e+00  9.9878978079746705e-01 0.0000000000000000e+00 0.0000000000000000e+00  1.0008375670396725e+00 0.0000000000000000e+00 0.0000000000000000e+00  1.0006956038171044e+00 0.0000000000000000e+00 0.0000000000000000e+00  1.0016944308494782e+00 0.0000000000000000e+00 0.0000000000000000e+00  1.0020697688979594e+00 0.0000000000000000e+00 0.0000000000000000e+00  1.0024311446627732e+00 0.0000000000000000e+00 0.0000000000000000e+00  1.0033386744408723e+00 0.0000000000000000e+00 0.0000000000000000e+00  1.0046815565279485e+00 0.0000000000000000e+00 0.0000000000000000e+00  1.0059677603808841e+00 0.0000000000000000e+00 0.0000000000000000e+00  1.0076653920291645e+00 0.0000000000000000e+00 0.0000000000000000e+00  1.0101663370760181e+00 0.0000000000000000e+00 0.0000000000000000e+00  1.0128839605273765e+00 0.0000000000000000e+00 0.0000000000000000e+00  1.0173242795068482e+00 0.0000000000000000e+00 0.0000000000000000e+00  1.0197028417186336e+00 0.0000000000000000e+00 0.0000000000000000e+00  1.0251484608763597e+00 0.0000000000000000e+00 0.0000000000000000e+00  1.0329544317162640e+00 0.0000000000000000e+00 0.0000000000000000e+00  1.0397626525244297e+00 0.0000000000000000e+00 0.0000000000000000e+00  1.0598355024406791e+00 0.0000000000000000e+00 0.0000000000000000e+00  1.0709660252018038e+00 0.0000000000000000e+00 0.0000000000000000e+00  1.0820715498311346e+00 0.0000000000000000e+00 0.0000000000000000e+00  1.0942408081467931e+00 0.0000000000000000e+00 0.0000000000000000e+00  1.1052257488485766e+00 0.0000000000000000e+00 0.0000000000000000e+00  1.1158118873580001e+00 0.0000000000000000e+00 0.0000000000000000e+00  1.1259290843111935e+00 0.0000000000000000e+00 0.0000000000000000e+00  1.1331083615259572e+00 0.0000000000000000e+00 0.0000000000000000e+00  1.1388906095972389e+00 0.0000000000000000e+00 0.0000000000000000e+00  1.1421454164286988e+00 0.0000000000000000e+00 0.0000000000000000e+00  1.1433670102729672e+00 0.0000000000000000e+00 0.0000000000000000e+00  1.1413052451178962e+00 0.0000000000000000e+00 0.0000000000000000e+00  1.1382120483472939e+00 0.0000000000000000e+00 0.0000000000000000e+00  1.1327523416739329e+00 0.0000000000000000e+00 0.0000000000000000e+00  1.1258615903631153e+00 0.0000000000000000e+00 0.0000000000000000e+00  1.1182295660809018e+00 0.0000000000000000e+00 0.0000000000000000e+00  1.1095738683549072e+00 0.0000000000000000e+00 0.0000000000000000e+00  1.1007127595597990e+00 0.0000000000000000e+00 0.0000000000000000e+00  1.0912021914754133e+00 0.0000000000000000e+00 0.0000000000000000e+00  1.0816563546746920e+00 0.0000000000000000e+00 0.0000000000000000e+00  1.0733302499955153e+00 0.0000000000000000e+00 0.0000000000000000e+00  1.0660465430566464e+00 0.0000000000000000e+00 0.0000000000000000e+00  1.0579519305314686e+00 0.0000000000000000e+00 0.0000000000000000e+00  1.0513299550187363e+00 0.0000000000000000e+00 0.0000000000000000e+00  1.0451758847430814e+00 0.0000000000000000e+00 0.0000000000000000e+00  1.0395841166477928e+00 0.0000000000000000e+00 0.0000000000000000e+00  1.0349864428483149e+00 0.0000000000000000e+00 0.0000000000000000e+00  1.0306276961914498e+00 0.0000000000000000e+00 0.0000000000000000e+00  1.0267632858585996e+00 0.0000000000000000e+00 0.0000000000000000e+00  1.0237220850276374e+00 0.0000000000000000e+00 0.0000000000000000e+00  1.0203125929798917e+00 0.0000000000000000e+00 0.0000000000000000e+00  1.0170422179632597e+00 0.0000000000000000e+00 0.0000000000000000e+00  1.0155577045187365e+00 0.0000000000000000e+00 0.0000000000000000e+00  1.0131892579969743e+00 0.0000000000000000e+00 0.0000000000000000e+00  1.0108404797723398e+00 0.0000000000000000e+00 0.0000000000000000e+00  1.0096267979251026e+00 0.0000000000000000e+00 0.0000000000000000e+00  1.0076659907346037e+00 0.0000000000000000e+00 0.0000000000000000e+00  1.0056581968535967e+00 0.0000000000000000e+00 0.0000000000000000e+00  1.0051998159204669e+00 0.0000000000000000e+00 0.0000000000000000e+00  1.0038898252344235e+00 0.0000000000000000e+00 0.0000000000000000e+00  1.0025688286119541e+00 0.0000000000000000e+00 0.0000000000000000e+00  1.0021002564874915e+00 0.0000000000000000e+00 0.0000000000000000e+00  1.0010096595258091e+00 0.0000000000000000e+00 0.0000000000000000e+00  1.0000099079232394e+00 0.0000000000000000e+00 0.0000000000000000e+00  9.9974625730730804e-01 0.0000000000000000e+00 0.0000000000000000e+00  9.9868646263576699e-01 0.0000000000000000e+00 0.0000000000000000e+00  9.9749215291890725e-01 0.0000000000000000e+00 0.0000000000000000e+00  9.9876165005871964e-01 0.0000000000000000e+00 0.0000000000000000e+00  9.9814270209767531e-01 0.0000000000000000e+00 0.0000000000000000e+00  9.9605352234485733e-01 0.0000000000000000e+00 0.0000000000000000e+00  9.9507743685035355e-01 0.0000000000000000e+00 0.0000000000000000e+00  9.9580897758454057e-01 0.0000000000000000e+00 0.0000000000000000e+00  9.9568388556005594e-01 0.0000000000000000e+00 0.0000000000000000e+00  9.9613506518547823e-01 0.0000000000000000e+00 0.0000000000000000e+00  9.9549293361991797e-01 0.0000000000000000e+00 0.0000000000000000e+00  9.9485758460701756e-01 0.0000000000000000e+00 0.0000000000000000e+00  9.9512635332190313e-01 0.0000000000000000e+00 0.0000000000000000e+00  9.9542436434418446e-01 0.0000000000000000e+00 0.0000000000000000e+00  9.9533852723367067e-01 0.0000000000000000e+00 0.0000000000000000e+00  9.9532577047361714e-01 0.0000000000000000e+00 0.0000000000000000e+00  9.9561246460905739e-01 0.0000000000000000e+00 0.0000000000000000e+00  9.9591857652257942e-01 0.0000000000000000e+00 0.0000000000000000e+00  9.9574842236873407e-01 0.0000000000000000e+00 0.0000000000000000e+00  9.9606966217584403e-01 0.0000000000000000e+00 0.0000000000000000e+00  9.9616403714030566e-01 0.0000000000000000e+00 0.0000000000000000e+00  9.9596533417431710e-01 0.0000000000000000e+00 0.0000000000000000e+00  9.9624634621067976e-01 0.0000000000000000e+00 0.0000000000000000e+00  9.9641199848021444e-01 0.0000000000000000e+00 0.0000000000000000e+00  9.9707644348186941e-01 0.0000000000000000e+00 0.0000000000000000e+00  9.9678802033623637e-01 0.0000000000000000e+00 0.0000000000000000e+00  9.9701368471769936e-01 0.0000000000000000e+00 0.0000000000000000e+00  9.9691476445728755e-01 0.0000000000000000e+00 0.0000000000000000e+00  9.9746678351603035e-01 0.0000000000000000e+00 0.0000000000000000e+00  9.9737049488266205e-01 0.0000000000000000e+00 0.0000000000000000e+00  9.9785611402819563e-01 0.0000000000000000e+00 0.0000000000000000e+00  9.9746501280642907e-01 0.0000000000000000e+00 0.0000000000000000e+00  9.9829284516699623e-01 -4.6871973882863072e-05 0.0000000000000000e+00  9.9896182569655800e-01 -1.9999698517876173e-04 0.0000000000000000e+00  1.0002533538834883e+00 -2.6142314633592568e-04 0.0000000000000000e+00  1.0003651737350996e+00 -2.1980061882432130e-04 0.0000000000000000e+00  1.0010980727272054e+00 -2.6579720269317622e-04 0.0000000000000000e+00  1.0007906938718436e+00 -2.0384090969492459e-04 0.0000000000000000e+00  1.0005317815959129e+00 -1.4823348685930184e-04 0.0000000000000000e+00  1.0007760324385329e+00 -1.0757830470177727e-04 0.0000000000000000e+00  1.0005235360378812e+00 -1.0412289633587101e-04 0.0000000000000000e+00  1.0005965448582246e+00 6.7411953396759905e-05 0.0000000000000000e+00  1.0018714828489661e+00 -5.3064175844763542e-04 0.0000000000000000e+00  1.0021530335719169e+00 -3.4739942638448412e-04 0.0000000000000000e+00  1.0007809536785175e+00 -5.2012113785576382e-04 0.0000000000000000e+00  9.9966561975081503e-01 -3.8529511214946280e-04 0.0000000000000000e+00  1.0004913409201794e+00 1.9393687506856990e-04 0.0000000000000000e+00  1.0012843483967340e+00 5.1766440637185699e-04 0.0000000000000000e+00  1.0003309499391817e+00 -7.0057390512451864e-06 0.0000000000000000e+00  9.9988126424647428e-01 1.0186017931417628e-04 0.0000000000000000e+00  9.9921259758617720e-01 2.4327640760753196e-04 0.0000000000000000e+00  9.9948561215380738e-01 2.3353519507279333e-04 0.0000000000000000e+00  9.9894233555682033e-01 2.3471224219615691e-04 0.0000000000000000e+00  9.9903653895003164e-01 1.5984003907149161e-04 0.0000000000000000e+00  9.9851354717111962e-01 2.1547832117324795e-05 0.0000000000000000e+00  9.9770974831445125e-01 0.0000000000000000e+00 0.0000000000000000e+00  9.9756934144309439e-01 0.0000000000000000e+00 0.0000000000000000e+00  9.9741854025906695e-01 0.0000000000000000e+00 0.0000000000000000e+00  9.9757751290567664e-01 0.0000000000000000e+00 0.0000000000000000e+00  9.9709612405110826e-01 0.0000000000000000e+00 0.0000000000000000e+00  9.9709448224082420e-01 0.0000000000000000e+00 0.0000000000000000e+00  9.9727321076098763e-01 0.0000000000000000e+00 0.0000000000000000e+00  9.9754440514477338e-01 0.0000000000000000e+00 0.0000000000000000e+00  9.9714064345109110e-01 0.0000000000000000e+00 0.0000000000000000e+00  9.9705484384080556e-01 0.0000000000000000e+00 0.0000000000000000e+00  9.9684776928823715e-01 0.0000000000000000e+00 0.0000000000000000e+00  9.9652318670791740e-01 0.0000000000000000e+00 0.0000000000000000e+00  9.9627166383737620e-01 0.0000000000000000e+00 0.0000000000000000e+00  9.9670723148360330e-01 0.0000000000000000e+00 0.0000000000000000e+00  9.9636355233803864e-01 0.0000000000000000e+00 0.0000000000000000e+00  9.9695933403561954e-01 0.0000000000000000e+00 0.0000000000000000e+00  9.9626548032588014e-01 0.0000000000000000e+00 0.0000000000000000e+00  9.9612282017560616e-01 0.0000000000000000e+00 0.0000000000000000e+00  9.9574221100193061e-01 0.0000000000000000e+00 0.0000000000000000e+00  9.9598671227156876e-01 0.0000000000000000e+00 0.0000000000000000e+00  9.9604179369456269e-01 0.0000000000000000e+00 0.0000000000000000e+00  9.9578362114689301e-01 0.0000000000000000e+00 0.0000000000000000e+00  9.9612789358019904e-01 0.0000000000000000e+00 0.0000000000000000e+00  9.9579603042786924e-01 0.0000000000000000e+00 0.0000000000000000e+00  9.9607076675969264e-01 0.0000000000000000e+00 0.0000000000000000e+00  9.9533131583734558e-01 0.0000000000000000e+00 0.0000000000000000e+00  9.9619596381292164e-01 0.0000000000000000e+00 0.0000000000000000e+00  9.9792046101372733e-01 0.0000000000000000e+00 0.0000000000000000e+00  9.9856661762119181e-01 0.0000000000000000e+00 0.0000000000000000e+00  9.9744310217506726e-01 0.0000000000000000e+00 0.0000000000000000e+00  9.9853231915490326e-01 0.0000000000000000e+00 0.0000000000000000e+00  9.9958106360577592e-01 0.0000000000000000e+00 0.0000000000000000e+00  9.9987740867348673e-01 0.0000000000000000e+00 0.0000000000000000e+00  1.0008573162320478e+00 0.0000000000000000e+00 0.0000000000000000e+00  1.0019356039471272e+00 0.0000000000000000e+00 0.0000000000000000e+00  1.0023993051413913e+00 0.0000000000000000e+00 0.0000000000000000e+00  1.0037088445856186e+00 0.0000000000000000e+00 0.0000000000000000e+00  1.0050055744995028e+00 0.0000000000000000e+00 0.0000000000000000e+00  1.0055486242365970e+00 0.0000000000000000e+00 0.0000000000000000e+00  1.0074462239170148e+00 0.0000000000000000e+00 0.0000000000000000e+00  1.0094053663673035e+00 0.0000000000000000e+00 0.0000000000000000e+00  1.0106240186090756e+00 0.0000000000000000e+00 0.0000000000000000e+00  1.0129538921318073e+00 0.0000000000000000e+00 0.0000000000000000e+00  1.0153430058679043e+00 0.0000000000000000e+00 0.0000000000000000e+00  1.0168598098322521e+00 0.0000000000000000e+00 0.0000000000000000e+00  1.0201425742660530e+00 0.0000000000000000e+00 0.0000000000000000e+00  1.0235444494344714e+00 0.0000000000000000e+00 0.0000000000000000e+00  1.0265493572495348e+00 0.0000000000000000e+00 0.0000000000000000e+00  1.0303759552863534e+00 0.0000000000000000e+00 0.0000000000000000e+00  1.0346176778586960e+00 0.0000000000000000e+00 0.0000000000000000e+00  1.0391455984917632e+00 0.0000000000000000e+00 0.0000000000000000e+00  1.0445880852086464e+00 0.0000000000000000e+00 0.0000000000000000e+00  1.0507199696098484e+00 0.0000000000000000e+00 0.0000000000000000e+00  1.0572381692876678e+00 0.0000000000000000e+00 0.0000000000000000e+00  1.0651284895459405e+00 0.0000000000000000e+00 0.0000000000000000e+00  1.0722908278333751e+00 0.0000000000000000e+00 0.0000000000000000e+00  1.0806089481891756e+00 0.0000000000000000e+00 0.0000000000000000e+00  1.0899516711439647e+00 0.0000000000000000e+00 0.0000000000000000e+00  1.0994874379769746e+00 0.0000000000000000e+00 0.0000000000000000e+00  1.1082629900805321e+00 0.0000000000000000e+00 0.0000000000000000e+00  1.1163961400678275e+00 0.0000000000000000e+00 0.0000000000000000e+00  1.1240538560225339e+00 0.0000000000000000e+00 0.0000000000000000e+00  1.1314506643680400e+00 0.0000000000000000e+00 0.0000000000000000e+00  1.1368557497974412e+00 0.0000000000000000e+00 0.0000000000000000e+00  1.1399683760123418e+00 0.0000000000000000e+00 0.0000000000000000e+00  1.1425294929251670e+00 0.0000000000000000e+00 0.0000000000000000e+00  1.1411811353825454e+00 0.0000000000000000e+00 0.0000000000000000e+00  1.1383591650038782e+00 0.0000000000000000e+00 0.0000000000000000e+00  1.1328989479990152e+00 0.0000000000000000e+00 0.0000000000000000e+00  1.1248370174272546e+00 0.0000000000000000e+00 0.0000000000000000e+00  1.1152015908127564e+00 0.0000000000000000e+00 0.0000000000000000e+00  1.1046011078925850e+00 0.0000000000000000e+00 0.0000000000000000e+00  1.0933872812428373e+00 0.0000000000000000e+00 0.0000000000000000e+00  1.0810933978410791e+00 0.0000000000000000e+00 0.0000000000000000e+00  1.0702061734558816e+00 0.0000000000000000e+00 0.0000000000000000e+00  1.0591442820763801e+00 0.0000000000000000e+00 0.0000000000000000e+00  1.0394078965701781e+00 0.0000000000000000e+00 0.0000000000000000e+00  1.0312785291061823e+00 0.0000000000000000e+00 0.0000000000000000e+00  1.0249512792721502e+00 0.0000000000000000e+00 0.0000000000000000e+00  1.0192739152683625e+00 0.0000000000000000e+00 0.0000000000000000e+00  1.0147770745297962e+00 0.0000000000000000e+00 0.0000000000000000e+00  1.0112274380557496e+00 0.0000000000000000e+00 0.0000000000000000e+00  1.0084985964559900e+00 0.0000000000000000e+00 0.0000000000000000e+00  1.0059722529060839e+00 0.0000000000000000e+00 0.0000000000000000e+00  1.0042068017876999e+00 0.0000000000000000e+00 0.0000000000000000e+00  1.0029866924932092e+00 0.0000000000000000e+00 0.0000000000000000e+00  1.0016452433629253e+00 0.0000000000000000e+00 0.0000000000000000e+00  1.0014005095205101e+00 0.0000000000000000e+00 0.0000000000000000e+00  1.0002927327705302e+00 0.0000000000000000e+00 0.0000000000000000e+00  1.0002384570114409e+00 0.0000000000000000e+00 0.0000000000000000e+00  9.9981358402704201e-01 0.0000000000000000e+00 0.0000000000000000e+00  1.0005059314127149e+00 0.0000000000000000e+00 0.0000000000000000e+00  1.0002544887350999e+00 0.0000000000000000e+00 0.0000000000000000e+00  9.9979623407487628e-01 0.0000000000000000e+00 0.0000000000000000e+00  1.0000001334364894e+00 0.0000000000000000e+00 0.0000000000000000e+00  1.0000001334364894e+00 0.0000000000000000e+00 0.0000000000000000e+00  1.0000001334364894e+00 0.0000000000000000e+00 0.0000000000000000e+00  1.0000001334364894e+00 0.0000000000000000e+00 0.0000000000000000e+00  1.0000001334364894e+00 0.0000000000000000e+00 0.0000000000000000e+00  1.0000001334364894e+00 0.0000000000000000e+00 0.0000000000000000e+00  1.0000001334364894e+00 0.0000000000000000e+00 0.0000000000000000e+00  1.0000001334364894e+00 0.0000000000000000e+00 0.0000000000000000e+00  1.0000001334364894e+00 0.0000000000000000e+00 0.0000000000000000e+00  1.0000001334364894e+00 0.0000000000000000e+00 0.0000000000000000e+00  1.0000001334364894e+00 0.0000000000000000e+00 0.0000000000000000e+00  1.0000001334364894e+00 0.0000000000000000e+00 0.0000000000000000e+00  1.0000001334364894e+00 0.0000000000000000e+00 0.0000000000000000e+00  1.0000001334364894e+00 0.0000000000000000e+00 0.0000000000000000e+00  1.0000001334364894e+00 0.0000000000000000e+00 0.0000000000000000e+00  1.0000001334364894e+00 0.0000000000000000e+00 0.0000000000000000e+00  1.0000001334364894e+00 0.0000000000000000e+00 0.0000000000000000e+00  1.0000001334364894e+00 0.0000000000000000e+00 0.0000000000000000e+00  1.0000001334364894e+00 0.0000000000000000e+00 0.0000000000000000e+00  1.0000001334364894e+00 0.0000000000000000e+00 0.0000000000000000e+00  1.0487412504328122e+00 -1.1858082145936828e-02 0.0000000000000000e+00  1.0448217120759029e+00 -2.3737304350125776e-02 0.0000000000000000e+00  1.0410342622381532e+00 -3.5962906862126096e-02 0.0000000000000000e+00  1.0332527559798288e+00 -4.8427803423810561e-02 0.0000000000000000e+00  1.0250059285506508e+00 -6.5055426422464743e-02 0.0000000000000000e+00  1.0296696934598524e+00 -6.9273898742177223e-02 0.0000000000000000e+00  1.0339136015751988e+00 -7.3633831644699249e-02 0.0000000000000000e+00  1.0392390163364837e+00 -7.7757448864727338e-02 0.0000000000000000e+00  1.0448625985410847e+00 -8.1802919180559472e-02 0.0000000000000000e+00  1.0511562021369405e+00 -8.5520591449257111e-02 0.0000000000000000e+00  1.0580788651647779e+00 -8.8958615516870315e-02 0.0000000000000000e+00  1.0655247238284102e+00 -9.1811244832497696e-02 0.0000000000000000e+00  1.0735287742252662e+00 -9.4226574203426297e-02 0.0000000000000000e+00  1.0817579516574602e+00 -9.5844542646580391e-02 0.0000000000000000e+00  1.0903954698508105e+00 -9.6902330162508390e-02 0.0000000000000000e+00  1.0992050136639835e+00 -9.7249472135400195e-02 0.0000000000000000e+00  1.1081836503432070e+00 -9.6637452545727434e-02 0.0000000000000000e+00  1.1169334518658991e+00 -9.5193621265805994e-02 0.0000000000000000e+00  1.1255606627325623e+00 -9.3086538531315891e-02 0.0000000000000000e+00  1.1339105464455943e+00 -9.0235895191929566e-02 0.0000000000000000e+00  1.1417701310503174e+00 -8.6652604207068579e-02 0.0000000000000000e+00  1.1492101005623705e+00 -8.2511485895665232e-02 0.0000000000000000e+00  1.1560635899078322e+00 -7.7879824730020100e-02 0.0000000000000000e+00  1.1624069087972710e+00 -7.2696169781402087e-02 0.0000000000000000e+00  1.1681662817465357e+00 -6.7327905525015289e-02 0.0000000000000000e+00  1.1733685778103153e+00 -6.1577691467666180e-02 0.0000000000000000e+00  1.1778682400505460e+00 -5.5541020494036197e-02 0.0000000000000000e+00  1.1819347018800719e+00 -4.9394165897834928e-02 0.0000000000000000e+00  1.1853075876804573e+00 -4.3149598219620985e-02 0.0000000000000000e+00  1.1881687043023665e+00 -3.6795683720366651e-02 0.0000000000000000e+00  1.1904409345556430e+00 -3.0394451975640068e-02 0.0000000000000000e+00  1.1921434500055754e+00 -2.4036019879566550e-02 0.0000000000000000e+00  1.1933595661215448e+00 -1.7591128306161032e-02 0.0000000000000000e+00  1.1940060085393274e+00 -1.1136928718530831e-02 0.0000000000000000e+00  1.1941517072392629e+00 -4.7610811657095870e-03 0.0000000000000000e+00  1.1937814579585091e+00 1.53516