<?xml version="1.0"?>
<VTKFile type="UnstructuredGrid"  version="0.1"  >
<UnstructuredGrid>
<Piece  NumberOfPoints="10199" NumberOfCells="20110">
<Points>
<DataArray  type="Float64"  NumberOfComponents="3"  format="ascii">0 -5 0  8 -5 0  30 -5 0  40 -5 0  40 5 0  30 5 0  8 5 0  0 5 0  8 -2.5 0  15 -2.5 0  30 -2.5 0  30 2.5 0  15 2.5 0  8 2.5 0  10 0.5 0  10 -0.5 0  0 0 0  0.4210526315780956 -5 0  0.8421052631563433 -5 0  1.263157894734281 -5 0  1.684210526311999 -5 0  2.105263157889717 -5 0  2.526315789467435 -5 0  2.947368421045153 -5 0  3.368421052622872 -5 0  3.78947368420059 -5 0  4.210526315779479 -5 0  4.631578947359537 -5 0  5.052631578939595 -5 0  5.473684210519653 -5 0  5.89473684209971 -5 0  6.315789473679768 -5 0  6.736842105259826 -5 0  7.157894736839884 -5 0  7.578947368419942 -5 0  8.407407407405314 -5 0  8.814814814810628 -5 0  9.222222222215942 -5 0  9.629629629621256 -5 0  10.03703703702657 -5 0  10.44444444443188 -5 0  10.8518518518372 -5 0  11.25925925924251 -5 0  11.66666666664783 -5 0  12.07407407405314 -5 0  12.48148148145846 -5 0  12.88888888886377 -5 0  13.29629629626908 -5 0  13.7037037036744 -5 0  14.11111111107971 -5 0  14.51851851848502 -5 0  14.92592592589034 -5 0  15.33333333329565 -5 0  15.74074074070096 -5 0  16.14814814810754 -5 0  16.55555555551614 -5 0  16.96296296292474 -5 0  17.37037037033335 -5 0  17.77777777774195 -5 0  18.18518518515056 -5 0  18.59259259255916 -5 0  18.99999999996776 -5 0  19.40740740737636 -5 0  19.81481481478497 -5 0  20.22222222219357 -5 0  20.62962962960217 -5 0  21.03703703701077 -5 0  21.44444444441937 -5 0  21.85185185182797 -5 0  22.25925925923657 -5 0  22.66666666664518 -5 0  23.07407407405378 -5 0  23.48148148146238 -5 0  23.88888888887098 -5 0  24.29629629627958 -5 0  24.70370370368818 -5 0  25.11111111109678 -5 0  25.51851851850539 -5 0  25.92592592591399 -5 0  26.33333333332259 -5 0  26.74074074073119 -5 0  27.14814814813979 -5 0  27.55555555554839 -5 0  27.96296296295699 -5 0  28.3703703703656 -5 0  28.7777777777742 -5 0  29.1851851851828 -5 0  29.5925925925914 -5 0  30.41666666667852 -5 0  30.83333333335704 -5 0  31.25000000003556 -5 0  31.66666666671408 -5 0  32.08333333338936 -5 0  32.50000000005308 -5 0  32.9166666667168 -5 0  33.33333333338052 -5 0  33.75000000004424 -5 0  34.16666666670795 -5 0  34.58333333337167 -5 0  35.00000000003539 -5 0  35.41666666669911 -5 0  35.83333333336282 -5 0  36.25000000002654 -5 0  36.66666666669026 -5 0  37.08333333335398 -5 0  37.50000000001769 -5 0  37.91666666668141 -5 0  38.33333333334513 -5 0  38.75000000000885 -5 0  39.16666666667257 -5 0  39.58333333333628 -5 0  40 -4.583333333332821 0  40 -4.166666666665642 0  40 -3.74999999999855 0  40 -3.333333333333135 0  40 -2.916666666667806 0  40 -2.500000000002478 0  40 -2.083333333337148 0  40 -1.666666666671818 0  40 -1.250000000006488 0  40 -0.8333333333405228 0  40 -0.4166666666733416 0  40 -6.163070054299169e-12 0  40 0.4166666666610173 0  40 0.8333333333281976 0  40 1.249999999995378 0  40 1.666666666662558 0  40 2.083333333329739 0  40 2.499999999996919 0  40 2.916666666664099 0  40 3.33333333333128 0  40 3.74999999999846 0  40 4.166666666665641 0  40 4.583333333332821 0  39.58333333333628 5 0  39.16666666667256 5 0  38.75000000000885 5 0  38.33333333334513 5 0  37.91666666668141 5 0  37.50000000001769 5 0  37.08333333335398 5 0  36.66666666669025 5 0  36.25000000002654 5 0  35.83333333336282 5 0  35.41666666669911 5 0  35.00000000003539 5 0  34.58333333337167 5 0  34.16666666670795 5 0  33.75000000004424 5 0  33.33333333338052 5 0  32.9166666667168 5 0  32.50000000005308 5 0  32.08333333338936 5 0  31.66666666671408 5 0  31.25000000003556 5 0  30.83333333335704 5 0  30.41666666667852 5 0  29.59259259259259 5 0  29.18518518518519 5 0  28.77777777777778 5 0  28.37037037037037 5 0  27.96296296296296 5 0  27.55555555555556 5 0  27.14814814814815 5 0  26.74074074074074 5 0  26.33333333333333 5 0  25.92592592592593 5 0  25.51851851851852 5 0  25.11111111111111 5 0  24.7037037037037 5 0  24.2962962962963 5 0  23.88888888888889 5 0  23.48148148148148 5 0  23.07407407407408 5 0  22.66666666666667 5 0  22.25925925925926 5 0  21.85185185185185 5 0  21.44444444444445 5 0  21.03703703703704 5 0  20.62962962962963 5 0  20.22222222222222 5 0  19.81481481481482 5 0  19.40740740740741 5 0  19 5 0  18.5925925925926 5 0  18.18518518518519 5 0  17.77777777777778 5 0  17.37037037037037 5 0  16.96296296296296 5 0  16.55555555555556 5 0  16.14814814814815 5 0  15.74074074074074 5 0  15.33333333333333 5 0  14.92592592592593 5 0  14.51851851851852 5 0  14.11111111111111 5 0  13.70370370370371 5 0  13.2962962962963 5 0  12.88888888888889 5 0  12.48148148148148 5 0  12.07407407407408 5 0  11.66666666666667 5 0  11.25925925925926 5 0  10.85185185185185 5 0  10.44444444444445 5 0  10.03703703703704 5 0  9.629629629629633 5 0  9.222222222222221 5 0  8.814814814814817 5 0  8.407407407407408 5 0  7.5789473684193 5 0  7.157894736838599 5 0  6.73684210526082 5 0  6.315789473684795 5 0  5.894736842108769 5 0  5.473684210532742 5 0  5.052631578956715 5 0  4.631578947380689 5 0  4.210526315804662 5 0  3.789473684226299 5 0  3.368421052645599 5 0  2.947368421064898 5 0  2.526315789484198 5 0  2.105263157903499 5 0  1.6842105263228 5 0  1.2631578947421 5 0  0.8421052631613994 5 0  0.4210526315806993 5 0  0 4.545454545454545 0  0 4.09090909090909 0  0 3.636363636363634 0  0 3.18181818181818 0  0 2.727272727272726 0  0 2.272727272727271 0  0 1.818181818181817 0  0 1.363636363636363 0  0 0.9090909090909092 0  0 0.454545454545455 0  0 -0.4545454545450807 0  0 -0.9090909090895867 0  0 -1.363636363633713 0  0 -1.818181818177841 0  0 -2.272727272723127 0  0 -2.727272727269273 0  0 -3.181818181815419 0  0 -3.636363636361564 0  0 -4.090909090907709 0  0 -4.545454545453855 0  8 -4.499999999999999 0  8 -3.999999999999999 0  8 -3.499999999999999 0  8 -3 0  8.137254901963859 -2.5 0  8.274509803926303 -2.5 0  8.411764705886863 -2.5 0  8.549019607849138 -2.5 0  8.686274509809513 -2.5 0  8.82352941176989 -2.5 0  8.960784313730265 -2.5 0  9.098039215690642 -2.5 0  9.235294117651017 -2.5 0  9.372549019611395 -2.5 0  9.50980392157177 -2.5 0  9.647058823532147 -2.5 0  9.784313725492522 -2.5 0  9.921568627452897 -2.5 0  10.05882352941327 -2.5 0  10.19607843137365 -2.5 0  10.33333333333402 -2.5 0  10.4705882352944 -2.5 0  10.60784313725478 -2.5 0  10.74509803921515 -2.5 0  10.88235294117553 -2.5 0  11.0196078431359 -2.5 0  11.15686274509628 -2.5 0  11.29411764705665 -2.5 0  11.43137254901703 -2.5 0  11.56862745097915 -2.5 0  11.70588235294301 -2.5 0  11.84313725490686 -2.5 0  11.98039215687072 -2.5 0  12.11764705883209 -2.5 0  12.25490196079247 -2.5 0  12.39215686275285 -2.5 0  12.52941176471322 -2.5 0  12.6666666666736 -2.5 0  12.80392156863397 -2.5 0  12.94117647059435 -2.5 0  13.07843137255473 -2.5 0  13.2156862745151 -2.5 0  13.35294117647548 -2.5 0  13.49019607843586 -2.5 0  13.62745098039623 -2.5 0  13.76470588235661 -2.5 0  13.90196078431699 -2.5 0  14.03921568627736 -2.5 0  14.17647058823774 -2.5 0  14.31372549019812 -2.5 0  14.45098039215849 -2.5 0  14.58823529411887 -2.5 0  14.72549019607925 -2.5 0  14.86274509803962 -2.5 0  15.20270270270254 -2.5 0  15.40540540540509 -2.5 0  15.60810810810763 -2.5 0  15.81081081081017 -2.5 0  16.01351351351227 -2.5 0  16.21621621621265 -2.5 0  16.41891891891279 -2.5 0  16.62162162161294 -2.5 0  16.82432432431308 -2.5 0  17.02702702701322 -2.5 0  17.22972972971337 -2.5 0  17.43243243241351 -2.5 0  17.63513513511365 -2.5 0  17.83783783781379 -2.5 0  18.04054054051394 -2.5 0  18.24324324321408 -2.5 0  18.44594594591422 -2.5 0  18.64864864861436 -2.5 0  18.85135135131451 -2.5 0  19.05405405401465 -2.5 0  19.25675675671479 -2.5 0  19.45945945941494 -2.5 0  19.66216216211508 -2.5 0  19.86486486481522 -2.5 0  20.06756756751536 -2.5 0  20.27027027021551 -2.5 0  20.47297297291565 -2.5 0  20.6756756756158 -2.5 0  20.87837837831594 -2.5 0  21.08108108101608 -2.5 0  21.28378378371622 -2.5 0  21.48648648641637 -2.5 0  21.68918918911651 -2.5 0  21.89189189181666 -2.5 0  22.0945945945168 -2.5 0  22.29729729721694 -2.5 0  22.49999999991778 -2.5 0  22.70270270262203 -2.5 0  22.90540540532697 -2.5 0  23.10810810803191 -2.5 0  23.31081081073686 -2.5 0  23.5135135134418 -2.5 0  23.71621621614674 -2.5 0  23.91891891885169 -2.5 0  24.12162162155663 -2.5 0  24.32432432426158 -2.5 0  24.52702702696652 -2.5 0  24.72972972967146 -2.5 0  24.93243243237641 -2.5 0  25.13513513508135 -2.5 0  25.3378378377863 -2.5 0  25.54054054049124 -2.5 0  25.74324324319618 -2.5 0  25.94594594590112 -2.5 0  26.14864864860607 -2.5 0  26.35135135131101 -2.5 0  26.55405405401596 -2.5 0  26.7567567567209 -2.5 0  26.95945945942584 -2.5 0  27.16216216213079 -2.5 0  27.36486486483573 -2.5 0  27.56756756754068 -2.5 0  27.77027027024562 -2.5 0  27.97297297295056 -2.5 0  28.1756756756555 -2.5 0  28.37837837836045 -2.5 0  28.5810810810654 -2.5 0  28.78378378377034 -2.5 0  28.98648648647528 -2.5 0  29.18918918918023 -2.5 0  29.39189189188517 -2.5 0  29.59459459459011 -2.5 0  29.79729729729506 -2.5 0  30 -3.000000000000001 0  30 -3.500000000000001 0  30 -4.000000000000001 0  30 -4.5 0  8 4.499999999999999 0  8 3.999999999999999 0  8 3.499999999999999 0  8 3 0  8.137254901963859 2.5 0  8.274509803926303 2.5 0  8.411764705886863 2.5 0  8.549019607849138 2.5 0  8.686274509809513 2.5 0  8.82352941176989 2.5 0  8.960784313730265 2.5 0  9.098039215690642 2.5 0  9.235294117651017 2.5 0  9.372549019611395 2.5 0  9.50980392157177 2.5 0  9.647058823532147 2.5 0  9.784313725492522 2.5 0  9.921568627452897 2.5 0  10.05882352941327 2.5 0  10.19607843137365 2.5 0  10.33333333333402 2.5 0  10.4705882352944 2.5 0  10.60784313725478 2.5 0  10.74509803921515 2.5 0  10.88235294117553 2.5 0  11.0196078431359 2.5 0  11.15686274509628 2.5 0  11.29411764705665 2.5 0  11.43137254901703 2.5 0  11.56862745097915 2.5 0  11.70588235294301 2.5 0  11.84313725490686 2.5 0  11.98039215687072 2.5 0  12.11764705883209 2.5 0  12.25490196079247 2.5 0  1
[...]
<PointData  Vectors="f_17"> 
<DataArray  type="Float64"  Name="f_17"  NumberOfComponents="3" format="ascii">1.0000001327808516e+00 0.0000000000000000e+00 0.0000000000000000e+00  1.0425459272407929e+00 0.0000000000000000e+00 0.0000000000000000e+00  1.0587449230741661e+00 0.0000000000000000e+00 0.0000000000000000e+00  1.0864661771369502e+00 0.0000000000000000e+00 0.0000000000000000e+00  1.0797081568663476e+00 0.0000000000000000e+00 0.0000000000000000e+00  1.0553730437811506e+00 0.0000000000000000e+00 0.0000000000000000e+00  1.0383789725327475e+00 0.0000000000000000e+00 0.0000000000000000e+00  1.0000001327808516e+00 0.0000000000000000e+00 0.0000000000000000e+00  1.0256586814033386e+00 -5.1890459063235563e-02 0.0000000000000000e+00  1.1399432158622615e+00 1.4553947734880541e-02 0.0000000000000000e+00  1.1091642339665795e+00 -8.5980417286929567e-02 0.0000000000000000e+00  1.0301463488558691e+00 -7.6306988339821899e-02 0.0000000000000000e+00  9.8895591119677351e-01 -3.8788949314827424e-02 0.0000000000000000e+00  1.0171429175053210e+00 4.9782088787565980e-02 0.0000000000000000e+00  0.0000000000000000e+00 0.0000000000000000e+00 0.0000000000000000e+00  0.0000000000000000e+00 0.0000000000000000e+00 0.0000000000000000e+00  1.0000001327808516e+00 0.0000000000000000e+00 0.0000000000000000e+00  9.9930459475350730e-01 0.0000000000000000e+00 0.0000000000000000e+00  9.9879636798858584e-01 0.0000000000000000e+00 0.0000000000000000e+00  1.0009118433755253e+00 0.0000000000000000e+00 0.0000000000000000e+00  1.0008337894621984e+00 0.0000000000000000e+00 0.0000000000000000e+00  1.0019434892737724e+00 0.0000000000000000e+00 0.0000000000000000e+00  1.0024180820693016e+00 0.0000000000000000e+00 0.0000000000000000e+00  1.0028730155900956e+00 0.0000000000000000e+00 0.0000000000000000e+00  1.0038388741025357e+00 0.0000000000000000e+00 0.0000000000000000e+00  1.0051890701089123e+00 0.0000000000000000e+00 0.0000000000000000e+00  1.0063962345870114e+00 0.0000000000000000e+00 0.0000000000000000e+00  1.0079358575832562e+00 0.0000000000000000e+00 0.0000000000000000e+00  1.0101894179907991e+00 0.0000000000000000e+00 0.0000000000000000e+00  1.0125521506637347e+00 0.0000000000000000e+00 0.0000000000000000e+00  1.0164864812805490e+00 0.0000000000000000e+00 0.0000000000000000e+00  1.0182034731669689e+00 0.0000000000000000e+00 0.0000000000000000e+00  1.0227402932871132e+00 0.0000000000000000e+00 0.0000000000000000e+00  1.0294393792247423e+00 0.0000000000000000e+00 0.0000000000000000e+00  1.0347786987584879e+00 0.0000000000000000e+00 0.0000000000000000e+00  1.0502329677634421e+00 0.0000000000000000e+00 0.0000000000000000e+00  1.0581644351267210e+00 0.0000000000000000e+00 0.0000000000000000e+00  1.0652536445399716e+00 0.0000000000000000e+00 0.0000000000000000e+00  1.0724390157373462e+00 0.0000000000000000e+00 0.0000000000000000e+00  1.0777617561585295e+00 0.0000000000000000e+00 0.0000000000000000e+00  1.0819567459689337e+00 0.0000000000000000e+00 0.0000000000000000e+00  1.0854071726546064e+00 0.0000000000000000e+00 0.0000000000000000e+00  1.0861606381451507e+00 0.0000000000000000e+00 0.0000000000000000e+00  1.0861787472051503e+00 0.0000000000000000e+00 0.0000000000000000e+00  1.0851139719514018e+00 0.0000000000000000e+00 0.0000000000000000e+00  1.0840785452333939e+00 0.0000000000000000e+00 0.0000000000000000e+00  1.0821228504094220e+00 0.0000000000000000e+00 0.0000000000000000e+00  1.0814659890759410e+00 0.0000000000000000e+00 0.0000000000000000e+00  1.0808847948693017e+00 0.0000000000000000e+00 0.0000000000000000e+00  1.0799448793848259e+00 0.0000000000000000e+00 0.0000000000000000e+00  1.0787278741188713e+00 0.0000000000000000e+00 0.0000000000000000e+00  1.0762460092646826e+00 0.0000000000000000e+00 0.0000000000000000e+00  1.0723475046568569e+00 0.0000000000000000e+00 0.0000000000000000e+00  1.0666185219788396e+00 0.0000000000000000e+00 0.0000000000000000e+00  1.0595426750137946e+00 0.0000000000000000e+00 0.0000000000000000e+00  1.0531383893872197e+00 0.0000000000000000e+00 0.0000000000000000e+00  1.0477076318490688e+00 0.0000000000000000e+00 0.0000000000000000e+00  1.0424091247531984e+00 0.0000000000000000e+00 0.0000000000000000e+00  1.0401618807408926e+00 0.0000000000000000e+00 0.0000000000000000e+00  1.0402205071369870e+00 0.0000000000000000e+00 0.0000000000000000e+00  1.0426246332710956e+00 0.0000000000000000e+00 0.0000000000000000e+00  1.0473614580264228e+00 0.0000000000000000e+00 0.0000000000000000e+00  1.0525772235990456e+00 0.0000000000000000e+00 0.0000000000000000e+00  1.0575408511706410e+00 0.0000000000000000e+00 0.0000000000000000e+00  1.0615650442953513e+00 0.0000000000000000e+00 0.0000000000000000e+00  1.0624777379496404e+00 0.0000000000000000e+00 0.0000000000000000e+00  1.0608872537409793e+00 0.0000000000000000e+00 0.0000000000000000e+00  1.0585689277837569e+00 0.0000000000000000e+00 0.0000000000000000e+00  1.0539248600664195e+00 0.0000000000000000e+00 0.0000000000000000e+00  1.0488601715761718e+00 0.0000000000000000e+00 0.0000000000000000e+00  1.0456031744398468e+00 0.0000000000000000e+00 0.0000000000000000e+00  1.0431457615114350e+00 0.0000000000000000e+00 0.0000000000000000e+00  1.0426657394929031e+00 0.0000000000000000e+00 0.0000000000000000e+00  1.0459050913110490e+00 0.0000000000000000e+00 0.0000000000000000e+00  1.0498171349895951e+00 0.0000000000000000e+00 0.0000000000000000e+00  1.0544803457203527e+00 0.0000000000000000e+00 0.0000000000000000e+00  1.0597772686163509e+00 0.0000000000000000e+00 0.0000000000000000e+00  1.0631152779043178e+00 0.0000000000000000e+00 0.0000000000000000e+00  1.0644268239140739e+00 0.0000000000000000e+00 0.0000000000000000e+00  1.0641460110199346e+00 0.0000000000000000e+00 0.0000000000000000e+00  1.0610763555906813e+00 0.0000000000000000e+00 0.0000000000000000e+00  1.0565825993354021e+00 0.0000000000000000e+00 0.0000000000000000e+00  1.0544032404404129e+00 0.0000000000000000e+00 0.0000000000000000e+00  1.0511045692087657e+00 0.0000000000000000e+00 0.0000000000000000e+00  1.0477052972431804e+00 0.0000000000000000e+00 0.0000000000000000e+00  1.0474479263208447e+00 0.0000000000000000e+00 0.0000000000000000e+00  1.0505696784568395e+00 0.0000000000000000e+00 0.0000000000000000e+00  1.0542657221744489e+00 0.0000000000000000e+00 0.0000000000000000e+00  1.0626558758413147e+00 0.0000000000000000e+00 0.0000000000000000e+00  1.0643741144232481e+00 0.0000000000000000e+00 0.0000000000000000e+00  1.0641735099800147e+00 0.0000000000000000e+00 0.0000000000000000e+00  1.0630287254073725e+00 0.0000000000000000e+00 0.0000000000000000e+00  1.0601340475743735e+00 0.0000000000000000e+00 0.0000000000000000e+00  1.0563138710194830e+00 0.0000000000000000e+00 0.0000000000000000e+00  1.0527529625649610e+00 0.0000000000000000e+00 0.0000000000000000e+00  1.0509393173910038e+00 0.0000000000000000e+00 0.0000000000000000e+00  1.0509312473798427e+00 0.0000000000000000e+00 0.0000000000000000e+00  1.0525146019912970e+00 0.0000000000000000e+00 0.0000000000000000e+00  1.0562009893371309e+00 0.0000000000000000e+00 0.0000000000000000e+00  1.0605477055044890e+00 0.0000000000000000e+00 0.0000000000000000e+00  1.0644280755525639e+00 0.0000000000000000e+00 0.0000000000000000e+00  1.0678207859449531e+00 0.0000000000000000e+00 0.0000000000000000e+00  1.0694811756999063e+00 0.0000000000000000e+00 0.0000000000000000e+00  1.0699696765882925e+00 0.0000000000000000e+00 0.0000000000000000e+00  1.0681467958446340e+00 0.0000000000000000e+00 0.0000000000000000e+00  1.0662994649060091e+00 0.0000000000000000e+00 0.0000000000000000e+00  1.0645261303480817e+00 0.0000000000000000e+00 0.0000000000000000e+00  1.0647146315872400e+00 0.0000000000000000e+00 0.0000000000000000e+00  1.0664354001541998e+00 0.0000000000000000e+00 0.0000000000000000e+00  1.0714373292169852e+00 0.0000000000000000e+00 0.0000000000000000e+00  1.0778168600860436e+00 0.0000000000000000e+00 0.0000000000000000e+00  1.0870109146966107e+00 -9.0227468219369715e-03 0.0000000000000000e+00  1.0876809659084559e+00 -1.9834941388465581e-02 0.0000000000000000e+00  1.0882461060077886e+00 -3.4267677004532301e-02 0.0000000000000000e+00  1.0862146352300073e+00 -5.4944477620562253e-02 0.0000000000000000e+00  1.0841284945574989e+00 -8.8656602644262006e-02 0.0000000000000000e+00  1.0793682874941126e+00 -1.3688231870244308e-01 0.0000000000000000e+00  1.0570355072880626e+00 -2.0172161702168867e-01 0.0000000000000000e+00  9.9933132613100850e-01 -2.6039520022444218e-01 0.0000000000000000e+00  9.0815480591969533e-01 -2.9914886330516360e-01 0.0000000000000000e+00  8.1390995688364987e-01 -3.0869942368163811e-01 0.0000000000000000e+00  7.5154195003896718e-01 -2.9893927087220190e-01 0.0000000000000000e+00  7.4024846673046518e-01 -2.8092620674486246e-01 0.0000000000000000e+00  7.7638734526885089e-01 -2.6090429864714937e-01 0.0000000000000000e+00  8.4853209241712246e-01 -2.3862018141673602e-01 0.0000000000000000e+00  9.3461975700759103e-01 -2.0946325905450811e-01 0.0000000000000000e+00  1.0112066505563426e+00 -1.6271818898483872e-01 0.0000000000000000e+00  1.0587322696374630e+00 -1.1485435520367229e-01 0.0000000000000000e+00  1.0802685588924079e+00 -6.9845082658850657e-02 0.0000000000000000e+00  1.0845591325874433e+00 -3.9819092892925269e-02 0.0000000000000000e+00  1.0841397874238550e+00 -2.0786143129152650e-02 0.0000000000000000e+00  1.0825943928683364e+00 -1.0460430254675648e-02 0.0000000000000000e+00  1.0819252103577550e+00 -5.0705423619723617e-03 0.0000000000000000e+00  1.0806214702760009e+00 -2.0669751686892474e-03 0.0000000000000000e+00  1.0811453225397678e+00 0.0000000000000000e+00 0.0000000000000000e+00  1.0817762942673070e+00 0.0000000000000000e+00 0.0000000000000000e+00  1.0807889509512856e+00 0.0000000000000000e+00 0.0000000000000000e+00  1.0781535746132247e+00 0.0000000000000000e+00 0.0000000000000000e+00  1.0732387574870801e+00 0.0000000000000000e+00 0.0000000000000000e+00  1.0679509976748618e+00 0.0000000000000000e+00 0.0000000000000000e+00  1.0629040959242553e+00 0.0000000000000000e+00 0.0000000000000000e+00  1.0591021121918396e+00 0.0000000000000000e+00 0.0000000000000000e+00  1.0565278455968699e+00 0.0000000000000000e+00 0.0000000000000000e+00  1.0563388760843095e+00 0.0000000000000000e+00 0.0000000000000000e+00  1.0580303166129545e+00 0.0000000000000000e+00 0.0000000000000000e+00  1.0607392632866119e+00 0.0000000000000000e+00 0.0000000000000000e+00  1.0637992141684265e+00 0.0000000000000000e+00 0.0000000000000000e+00  1.0667649592207120e+00 0.0000000000000000e+00 0.0000000000000000e+00  1.0674390333215822e+00 0.0000000000000000e+00 0.0000000000000000e+00  1.0672067039257496e+00 0.0000000000000000e+00 0.0000000000000000e+00  1.0638691062251948e+00 0.0000000000000000e+00 0.0000000000000000e+00  1.0598601359497148e+00 0.0000000000000000e+00 0.0000000000000000e+00  1.0553751618448650e+00 0.0000000000000000e+00 0.0000000000000000e+00  1.0520846160461337e+00 0.0000000000000000e+00 0.0000000000000000e+00  1.0501271834285220e+00 0.0000000000000000e+00 0.0000000000000000e+00  1.0497662002149948e+00 0.0000000000000000e+00 0.0000000000000000e+00  1.0519049956951931e+00 0.0000000000000000e+00 0.0000000000000000e+00  1.0585368333922287e+00 0.0000000000000000e+00 0.0000000000000000e+00  1.0621440845045480e+00 0.0000000000000000e+00 0.0000000000000000e+00  1.0632370195698462e+00 0.0000000000000000e+00 0.0000000000000000e+00  1.0639213159036365e+00 0.0000000000000000e+00 0.0000000000000000e+00  1.0633823329232719e+00 0.0000000000000000e+00 0.0000000000000000e+00  1.0600336577054548e+00 0.0000000000000000e+00 0.0000000000000000e+00  1.0539183376137304e+00 0.0000000000000000e+00 0.0000000000000000e+00  1.0503680117944723e+00 0.0000000000000000e+00 0.0000000000000000e+00  1.0477660447014756e+00 0.0000000000000000e+00 0.0000000000000000e+00  1.0460936707380259e+00 0.0000000000000000e+00 0.0000000000000000e+00  1.0471016258997090e+00 0.0000000000000000e+00 0.0000000000000000e+00  1.0499787510250735e+00 0.0000000000000000e+00 0.0000000000000000e+00  1.0533619284419553e+00 0.0000000000000000e+00 0.0000000000000000e+00  1.0577692616791092e+00 0.0000000000000000e+00 0.0000000000000000e+00  1.0612451017840143e+00 0.0000000000000000e+00 0.0000000000000000e+00  1.0621682430347203e+00 0.0000000000000000e+00 0.0000000000000000e+00  1.0619652782629538e+00 0.0000000000000000e+00 0.0000000000000000e+00  1.0593478882579113e+00 0.0000000000000000e+00 0.0000000000000000e+00  1.0540288692461961e+00 0.0000000000000000e+00 0.0000000000000000e+00  1.0489252632170609e+00 0.0000000000000000e+00 0.0000000000000000e+00  1.0439931022083488e+00 0.0000000000000000e+00 0.0000000000000000e+00  1.0393692153486227e+00 0.0000000000000000e+00 0.0000000000000000e+00  1.0384866954790388e+00 0.0000000000000000e+00 0.0000000000000000e+00  1.0398704843523010e+00 0.0000000000000000e+00 0.0000000000000000e+00  1.0427790514551942e+00 0.0000000000000000e+00 0.0000000000000000e+00  1.0476995350797047e+00 0.0000000000000000e+00 0.0000000000000000e+00  1.0533830657250394e+00 0.0000000000000000e+00 0.0000000000000000e+00  1.0582823194033923e+00 0.0000000000000000e+00 0.0000000000000000e+00  1.0622581438220986e+00 0.0000000000000000e+00 0.0000000000000000e+00  1.0641999409842426e+00 0.0000000000000000e+00 0.0000000000000000e+00  1.0637256072905479e+00 0.0000000000000000e+00 0.0000000000000000e+00  1.0621669854015585e+00 0.0000000000000000e+00 0.0000000000000000e+00  1.0585421537635216e+00 0.0000000000000000e+00 0.0000000000000000e+00  1.0553631846640152e+00 0.0000000000000000e+00 0.0000000000000000e+00  1.0541892856799415e+00 0.0000000000000000e+00 0.0000000000000000e+00  1.0547606848131832e+00 0.0000000000000000e+00 0.0000000000000000e+00  1.0570659842523951e+00 0.0000000000000000e+00 0.0000000000000000e+00  1.0611692527893228e+00 0.0000000000000000e+00 0.0000000000000000e+00  1.0673020529417048e+00 0.0000000000000000e+00 0.0000000000000000e+00  1.0751589645909905e+00 0.0000000000000000e+00 0.0000000000000000e+00  1.0823947578708903e+00 0.0000000000000000e+00 0.0000000000000000e+00  1.0885969805974727e+00 0.0000000000000000e+00 0.0000000000000000e+00  1.0948171726700697e+00 0.0000000000000000e+00 0.0000000000000000e+00  1.0973510420055903e+00 0.0000000000000000e+00 0.0000000000000000e+00  1.0985651470265902e+00 0.0000000000000000e+00 0.0000000000000000e+00  1.0970956944239034e+00 0.0000000000000000e+00 0.0000000000000000e+00  1.0929338134747826e+00 0.0000000000000000e+00 0.0000000000000000e+00  1.0870606426856053e+00 0.0000000000000000e+00 0.0000000000000000e+00  1.0800819372696735e+00 0.0000000000000000e+00 0.0000000000000000e+00  1.0722154779063833e+00 0.0000000000000000e+00 0.0000000000000000e+00  1.0631025279272646e+00 0.0000000000000000e+00 0.0000000000000000e+00  1.0549602750123734e+00 0.0000000000000000e+00 0.0000000000000000e+00  1.0463961415141314e+00 0.0000000000000000e+00 0.0000000000000000e+00  1.0307524827494807e+00 0.0000000000000000e+00 0.0000000000000000e+00  1.0242222771663438e+00 0.0000000000000000e+00 0.0000000000000000e+00  1.0191029847672897e+00 0.0000000000000000e+00 0.0000000000000000e+00  1.0145458641559999e+00 0.0000000000000000e+00 0.0000000000000000e+00  1.0108305335199921e+00 0.0000000000000000e+00 0.0000000000000000e+00  1.0079194694957134e+00 0.0000000000000000e+00 0.0000000000000000e+00  1.0057387844357293e+00 0.0000000000000000e+00 0.0000000000000000e+00  1.0036305270436106e+00 0.0000000000000000e+00 0.0000000000000000e+00  1.0022517221611607e+00 0.0000000000000000e+00 0.0000000000000000e+00  1.0013483479366629e+00 0.0000000000000000e+00 0.0000000000000000e+00  1.0003391550504468e+00 0.0000000000000000e+00 0.0000000000000000e+00  1.0003817492970144e+00 0.0000000000000000e+00 0.0000000000000000e+00  9.9954601916854280e-01 0.0000000000000000e+00 0.0000000000000000e+00  9.9972991020381408e-01 0.0000000000000000e+00 0.0000000000000000e+00  9.9951495130023527e-01 0.0000000000000000e+00 0.0000000000000000e+00  1.0003440295865325e+00 0.0000000000000000e+00 0.0000000000000000e+00  1.0001942500807124e+00 0.0000000000000000e+00 0.0000000000000000e+00  9.9979035986221898e-01 0.0000000000000000e+00 0.0000000000000000e+00  1.0000001327808516e+00 0.0000000000000000e+00 0.0000000000000000e+00  1.0000001327808516e+00 0.0000000000000000e+00 0.0000000000000000e+00  1.0000001327808516e+00 0.0000000000000000e+00 0.0000000000000000e+00  1.0000001327808516e+00 0.0000000000000000e+00 0.0000000000000000e+00  1.0000001327808516e+00 0.0000000000000000e+00 0.0000000000000000e+00  1.0000001327808516e+00 0.0000000000000000e+00 0.0000000000000000e+00  1.0000001327808516e+00 0.0000000000000000e+00 0.0000000000000000e+00  1.0000001327808516e+00 0.0000000000000000e+00 0.0000000000000000e+00  1.0000001327808516e+00 0.0000000000000000e+00 0.0000000000000000e+00  1.0000001327808516e+00 0.0000000000000000e+00 0.0000000000000000e+00  1.0000001327808516e+00 0.0000000000000000e+00 0.0000000000000000e+00  1.0000001327808516e+00 0.0000000000000000e+00 0.0000000000000000e+00  1.0000001327808516e+00 0.0000000000000000e+00 0.0000000000000000e+00  1.0000001327808516e+00 0.0000000000000000e+00 0.0000000000000000e+00  1.0000001327808516e+00 0.0000000000000000e+00 0.0000000000000000e+00  1.0000001327808516e+00 0.0000000000000000e+00 0.0000000000000000e+00  1.0000001327808516e+00 0.0000000000000000e+00 0.0000000000000000e+00  1.0000001327808516e+00 0.0000000000000000e+00 0.0000000000000000e+00  1.0000001327808516e+00 0.0000000000000000e+00 0.0000000000000000e+00  1.0000001327808516e+00 0.0000000000000000e+00 0.0000000000000000e+00  1.0420664393095271e+00 -9.0974523788521413e-03 0.0000000000000000e+00  1.0394939060098931e+00 -1.8480156353638161e-02 0.0000000000000000e+00  1.0379377617024033e+00 -2.8910255124523453e-02 0.0000000000000000e+00  1.0331500953421000e+00 -4.0038655136432226e-02 0.0000000000000000e+00  1.0286276890623740e+00 -5.5309326410026970e-02 0.0000000000000000e+00  1.0334044357541359e+00 -5.8304458690599296e-02 0.0000000000000000e+00  1.0377470404257003e+00 -6.1303958673815502e-02 0.0000000000000000e+00  1.0431285987735601e+00 -6.3896021316528051e-02 0.0000000000000000e+00  1.0487352187722176e+00 -6.6245944635788659e-02 0.0000000000000000e+00  1.0549448721745105e+00 -6.8057321865568829e-02 0.0000000000000000e+00  1.0616871266455796e+00 -6.9403886312694882e-02 0.0000000000000000e+00  1.0687934908605754e+00 -6.9958182548297526e-02 0.0000000000000000e+00  1.0763380535745641e+00 -6.9826946582635580e-02 0.0000000000000000e+00  1.0838633635985255e+00 -6.8666426886175580e-02 0.0000000000000000e+00  1.0915799447430399e+00 -6.6734732586327242e-02 0.0000000000000000e+00  1.0991274607098662e+00 -6.3920362300328284e-02 0.0000000000000000e+00  1.1065630602467591e+00 -5.9893791788607584e-02 0.0000000000000000e+00  1.1133520310468574e+00 -5.4814356698118460e-02 0.0000000000000000e+00  1.1195349897991835e+00 -4.8985239286995559e-02 0.0000000000000000e+00  1.1249351118506781e+00 -4.2305949212709866e-02 0.0000000000000000e+00  1.1292823692603478e+00 -3.4883657972514887e-02 0.0000000000000000e+00  1.1325357294858722e+00 -2.6928351784299559e-02 0.0000000000000000e+00  1.1345951843729489e+00 -1.8678843920617749e-02 0.0000000000000000e+00  1.1354010900536866e+00 -1.0046197791122183e-02 0.0000000000000000e+00  1.1349173236697487e+00 -1.7451330822382660e-03 0.0000000000000000e+00  1.1331495326409797e+00 6.5928165938579000e-03 0.0000000000000000e+00  1.1299660601012955e+00 1.4520131189559238e-02 0.0000000000000000e+00  1.1257776160919295e+00 2.1638063390352430e-02 0.0000000000000000e+00  1.1203539543464696e+00 2.7834587441495057e-02 0.0000000000000000e+00  1.1140223615779052e+00 3.2990249367671809e-02 0.0000000000000000e+00  1.1069066773657970e+00 3.6968886300144513e-02 0.0000000000000000e+00  1.0992480786612069e+00 3.9429244760977089e-02 0.0000000000000000e+00  1.0912408285959743e+00 4.0517605175737027e-02 0.0000000000000000e+00  1.0832029952534927e+00 4.0184659050927711e-02 0.0000000000000000e+00  1.0754793030759908e+00 3.8218708959080507e-02 0.0000000000000000e+00  1.0682290833777122e+00 3.48500