<?xml version="1.0"?>
<VTKFile type="UnstructuredGrid"  version="0.1"  >
<UnstructuredGrid>
<Piece  NumberOfPoints="10199" NumberOfCells="20110">
<Points>
<DataArray  type="Float64"  NumberOfComponents="3"  format="ascii">0 -5 0  8 -5 0  30 -5 0  40 -5 0  40 5 0  30 5 0  8 5 0  0 5 0  8 -2.5 0  15 -2.5 0  30 -2.5 0  30 2.5 0  15 2.5 0  8 2.5 0  10 0.5 0  10 -0.5 0  0 0 0  0.4210526315780956 -5 0  0.8421052631563433 -5 0  1.263157894734281 -5 0  1.684210526311999 -5 0  2.105263157889717 -5 0  2.526315789467435 -5 0  2.947368421045153 -5 0  3.368421052622872 -5 0  3.78947368420059 -5 0  4.210526315779479 -5 0  4.631578947359537 -5 0  5.052631578939595 -5 0  5.473684210519653 -5 0  5.89473684209971 -5 0  6.315789473679768 -5 0  6.736842105259826 -5 0  7.157894736839884 -5 0  7.578947368419942 -5 0  8.407407407405314 -5 0  8.814814814810628 -5 0  9.222222222215942 -5 0  9.629629629621256 -5 0  10.03703703702657 -5 0  10.44444444443188 -5 0  10.8518518518372 -5 0  11.25925925924251 -5 0  11.66666666664783 -5 0  12.07407407405314 -5 0  12.48148148145846 -5 0  12.88888888886377 -5 0  13.29629629626908 -5 0  13.7037037036744 -5 0  14.11111111107971 -5 0  14.51851851848502 -5 0  14.92592592589034 -5 0  15.33333333329565 -5 0  15.74074074070096 -5 0  16.14814814810754 -5 0  16.55555555551614 -5 0  16.96296296292474 -5 0  17.37037037033335 -5 0  17.77777777774195 -5 0  18.18518518515056 -5 0  18.59259259255916 -5 0  18.99999999996776 -5 0  19.40740740737636 -5 0  19.81481481478497 -5 0  20.22222222219357 -5 0  20.62962962960217 -5 0  21.03703703701077 -5 0  21.44444444441937 -5 0  21.85185185182797 -5 0  22.25925925923657 -5 0  22.66666666664518 -5 0  23.07407407405378 -5 0  23.48148148146238 -5 0  23.88888888887098 -5 0  24.29629629627958 -5 0  24.70370370368818 -5 0  25.11111111109678 -5 0  25.51851851850539 -5 0  25.92592592591399 -5 0  26.33333333332259 -5 0  26.74074074073119 -5 0  27.14814814813979 -5 0  27.55555555554839 -5 0  27.96296296295699 -5 0  28.3703703703656 -5 0  28.7777777777742 -5 0  29.1851851851828 -5 0  29.5925925925914 -5 0  30.41666666667852 -5 0  30.83333333335704 -5 0  31.25000000003556 -5 0  31.66666666671408 -5 0  32.08333333338936 -5 0  32.50000000005308 -5 0  32.9166666667168 -5 0  33.33333333338052 -5 0  33.75000000004424 -5 0  34.16666666670795 -5 0  34.58333333337167 -5 0  35.00000000003539 -5 0  35.41666666669911 -5 0  35.83333333336282 -5 0  36.25000000002654 -5 0  36.66666666669026 -5 0  37.08333333335398 -5 0  37.50000000001769 -5 0  37.91666666668141 -5 0  38.33333333334513 -5 0  38.75000000000885 -5 0  39.16666666667257 -5 0  39.58333333333628 -5 0  40 -4.583333333332821 0  40 -4.166666666665642 0  40 -3.74999999999855 0  40 -3.333333333333135 0  40 -2.916666666667806 0  40 -2.500000000002478 0  40 -2.083333333337148 0  40 -1.666666666671818 0  40 -1.250000000006488 0  40 -0.8333333333405228 0  40 -0.4166666666733416 0  40 -6.163070054299169e-12 0  40 0.4166666666610173 0  40 0.8333333333281976 0  40 1.249999999995378 0  40 1.666666666662558 0  40 2.083333333329739 0  40 2.499999999996919 0  40 2.916666666664099 0  40 3.33333333333128 0  40 3.74999999999846 0  40 4.166666666665641 0  40 4.583333333332821 0  39.58333333333628 5 0  39.16666666667256 5 0  38.75000000000885 5 0  38.33333333334513 5 0  37.91666666668141 5 0  37.50000000001769 5 0  37.08333333335398 5 0  36.66666666669025 5 0  36.25000000002654 5 0  35.83333333336282 5 0  35.41666666669911 5 0  35.00000000003539 5 0  34.58333333337167 5 0  34.16666666670795 5 0  33.75000000004424 5 0  33.33333333338052 5 0  32.9166666667168 5 0  32.50000000005308 5 0  32.08333333338936 5 0  31.66666666671408 5 0  31.25000000003556 5 0  30.83333333335704 5 0  30.41666666667852 5 0  29.59259259259259 5 0  29.18518518518519 5 0  28.77777777777778 5 0  28.37037037037037 5 0  27.96296296296296 5 0  27.55555555555556 5 0  27.14814814814815 5 0  26.74074074074074 5 0  26.33333333333333 5 0  25.92592592592593 5 0  25.51851851851852 5 0  25.11111111111111 5 0  24.7037037037037 5 0  24.2962962962963 5 0  23.88888888888889 5 0  23.48148148148148 5 0  23.07407407407408 5 0  22.66666666666667 5 0  22.25925925925926 5 0  21.85185185185185 5 0  21.44444444444445 5 0  21.03703703703704 5 0  20.62962962962963 5 0  20.22222222222222 5 0  19.81481481481482 5 0  19.40740740740741 5 0  19 5 0  18.5925925925926 5 0  18.18518518518519 5 0  17.77777777777778 5 0  17.37037037037037 5 0  16.96296296296296 5 0  16.55555555555556 5 0  16.14814814814815 5 0  15.74074074074074 5 0  15.33333333333333 5 0  14.92592592592593 5 0  14.51851851851852 5 0  14.11111111111111 5 0  13.70370370370371 5 0  13.2962962962963 5 0  12.88888888888889 5 0  12.48148148148148 5 0  12.07407407407408 5 0  11.66666666666667 5 0  11.25925925925926 5 0  10.85185185185185 5 0  10.44444444444445 5 0  10.03703703703704 5 0  9.629629629629633 5 0  9.222222222222221 5 0  8.814814814814817 5 0  8.407407407407408 5 0  7.5789473684193 5 0  7.157894736838599 5 0  6.73684210526082 5 0  6.315789473684795 5 0  5.894736842108769 5 0  5.473684210532742 5 0  5.052631578956715 5 0  4.631578947380689 5 0  4.210526315804662 5 0  3.789473684226299 5 0  3.368421052645599 5 0  2.947368421064898 5 0  2.526315789484198 5 0  2.105263157903499 5 0  1.6842105263228 5 0  1.2631578947421 5 0  0.8421052631613994 5 0  0.4210526315806993 5 0  0 4.545454545454545 0  0 4.09090909090909 0  0 3.636363636363634 0  0 3.18181818181818 0  0 2.727272727272726 0  0 2.272727272727271 0  0 1.818181818181817 0  0 1.363636363636363 0  0 0.9090909090909092 0  0 0.454545454545455 0  0 -0.4545454545450807 0  0 -0.9090909090895867 0  0 -1.363636363633713 0  0 -1.818181818177841 0  0 -2.272727272723127 0  0 -2.727272727269273 0  0 -3.181818181815419 0  0 -3.636363636361564 0  0 -4.090909090907709 0  0 -4.545454545453855 0  8 -4.499999999999999 0  8 -3.999999999999999 0  8 -3.499999999999999 0  8 -3 0  8.137254901963859 -2.5 0  8.274509803926303 -2.5 0  8.411764705886863 -2.5 0  8.549019607849138 -2.5 0  8.686274509809513 -2.5 0  8.82352941176989 -2.5 0  8.960784313730265 -2.5 0  9.098039215690642 -2.5 0  9.235294117651017 -2.5 0  9.372549019611395 -2.5 0  9.50980392157177 -2.5 0  9.647058823532147 -2.5 0  9.784313725492522 -2.5 0  9.921568627452897 -2.5 0  10.05882352941327 -2.5 0  10.19607843137365 -2.5 0  10.33333333333402 -2.5 0  10.4705882352944 -2.5 0  10.60784313725478 -2.5 0  10.74509803921515 -2.5 0  10.88235294117553 -2.5 0  11.0196078431359 -2.5 0  11.15686274509628 -2.5 0  11.29411764705665 -2.5 0  11.43137254901703 -2.5 0  11.56862745097915 -2.5 0  11.70588235294301 -2.5 0  11.84313725490686 -2.5 0  11.98039215687072 -2.5 0  12.11764705883209 -2.5 0  12.25490196079247 -2.5 0  12.39215686275285 -2.5 0  12.52941176471322 -2.5 0  12.6666666666736 -2.5 0  12.80392156863397 -2.5 0  12.94117647059435 -2.5 0  13.07843137255473 -2.5 0  13.2156862745151 -2.5 0  13.35294117647548 -2.5 0  13.49019607843586 -2.5 0  13.62745098039623 -2.5 0  13.76470588235661 -2.5 0  13.90196078431699 -2.5 0  14.03921568627736 -2.5 0  14.17647058823774 -2.5 0  14.31372549019812 -2.5 0  14.45098039215849 -2.5 0  14.58823529411887 -2.5 0  14.72549019607925 -2.5 0  14.86274509803962 -2.5 0  15.20270270270254 -2.5 0  15.40540540540509 -2.5 0  15.60810810810763 -2.5 0  15.81081081081017 -2.5 0  16.01351351351227 -2.5 0  16.21621621621265 -2.5 0  16.41891891891279 -2.5 0  16.62162162161294 -2.5 0  16.82432432431308 -2.5 0  17.02702702701322 -2.5 0  17.22972972971337 -2.5 0  17.43243243241351 -2.5 0  17.63513513511365 -2.5 0  17.83783783781379 -2.5 0  18.04054054051394 -2.5 0  18.24324324321408 -2.5 0  18.44594594591422 -2.5 0  18.64864864861436 -2.5 0  18.85135135131451 -2.5 0  19.05405405401465 -2.5 0  19.25675675671479 -2.5 0  19.45945945941494 -2.5 0  19.66216216211508 -2.5 0  19.86486486481522 -2.5 0  20.06756756751536 -2.5 0  20.27027027021551 -2.5 0  20.47297297291565 -2.5 0  20.6756756756158 -2.5 0  20.87837837831594 -2.5 0  21.08108108101608 -2.5 0  21.28378378371622 -2.5 0  21.48648648641637 -2.5 0  21.68918918911651 -2.5 0  21.89189189181666 -2.5 0  22.0945945945168 -2.5 0  22.29729729721694 -2.5 0  22.49999999991778 -2.5 0  22.70270270262203 -2.5 0  22.90540540532697 -2.5 0  23.10810810803191 -2.5 0  23.31081081073686 -2.5 0  23.5135135134418 -2.5 0  23.71621621614674 -2.5 0  23.91891891885169 -2.5 0  24.12162162155663 -2.5 0  24.32432432426158 -2.5 0  24.52702702696652 -2.5 0  24.72972972967146 -2.5 0  24.93243243237641 -2.5 0  25.13513513508135 -2.5 0  25.3378378377863 -2.5 0  25.54054054049124 -2.5 0  25.74324324319618 -2.5 0  25.94594594590112 -2.5 0  26.14864864860607 -2.5 0  26.35135135131101 -2.5 0  26.55405405401596 -2.5 0  26.7567567567209 -2.5 0  26.95945945942584 -2.5 0  27.16216216213079 -2.5 0  27.36486486483573 -2.5 0  27.56756756754068 -2.5 0  27.77027027024562 -2.5 0  27.97297297295056 -2.5 0  28.1756756756555 -2.5 0  28.37837837836045 -2.5 0  28.5810810810654 -2.5 0  28.78378378377034 -2.5 0  28.98648648647528 -2.5 0  29.18918918918023 -2.5 0  29.39189189188517 -2.5 0  29.59459459459011 -2.5 0  29.79729729729506 -2.5 0  30 -3.000000000000001 0  30 -3.500000000000001 0  30 -4.000000000000001 0  30 -4.5 0  8 4.499999999999999 0  8 3.999999999999999 0  8 3.499999999999999 0  8 3 0  8.137254901963859 2.5 0  8.274509803926303 2.5 0  8.411764705886863 2.5 0  8.549019607849138 2.5 0  8.686274509809513 2.5 0  8.82352941176989 2.5 0  8.960784313730265 2.5 0  9.098039215690642 2.5 0  9.235294117651017 2.5 0  9.372549019611395 2.5 0  9.50980392157177 2.5 0  9.647058823532147 2.5 0  9.784313725492522 2.5 0  9.921568627452897 2.5 0  10.05882352941327 2.5 0  10.19607843137365 2.5 0  10.33333333333402 2.5 0  10.4705882352944 2.5 0  10.60784313725478 2.5 0  10.74509803921515 2.5 0  10.88235294117553 2.5 0  11.0196078431359 2.5 0  11.15686274509628 2.5 0  11.29411764705665 2.5 0  11.43137254901703 2.5 0  11.56862745097915 2.5 0  11.70588235294301 2.5 0  11.84313725490686 2.5 0  11.98039215687072 2.5 0  12.11764705883209 2.5 0  12.25490196079247 2.5 0  1
[...]
<PointData  Vectors="f_17"> 
<DataArray  type="Float64"  Name="f_17"  NumberOfComponents="3" format="ascii">1.0000001317386333e+00 0.0000000000000000e+00 0.0000000000000000e+00  1.0427063619159174e+00 0.0000000000000000e+00 0.0000000000000000e+00  1.0561293962484763e+00 0.0000000000000000e+00 0.0000000000000000e+00  1.0827221131385996e+00 0.0000000000000000e+00 0.0000000000000000e+00  1.0830407126103907e+00 0.0000000000000000e+00 0.0000000000000000e+00  1.0581923652273961e+00 0.0000000000000000e+00 0.0000000000000000e+00  1.0381921302745758e+00 0.0000000000000000e+00 0.0000000000000000e+00  1.0000001317386333e+00 0.0000000000000000e+00 0.0000000000000000e+00  1.0251845400621828e+00 -5.2275457314753360e-02 0.0000000000000000e+00  1.1344569451616355e+00 -1.5739000318701634e-02 0.0000000000000000e+00  1.0783016227364108e+00 -8.9646192424793880e-02 0.0000000000000000e+00  1.0538697696012884e+00 -8.0033450022100577e-02 0.0000000000000000e+00  9.9883365280467795e-01 -5.9238072249600593e-02 0.0000000000000000e+00  1.0176059373393904e+00 4.9360790799959878e-02 0.0000000000000000e+00  0.0000000000000000e+00 0.0000000000000000e+00 0.0000000000000000e+00  0.0000000000000000e+00 0.0000000000000000e+00 0.0000000000000000e+00  1.0000001317386333e+00 0.0000000000000000e+00 0.0000000000000000e+00  9.9929742498201901e-01 0.0000000000000000e+00 0.0000000000000000e+00  9.9876752183931572e-01 0.0000000000000000e+00 0.0000000000000000e+00  1.0008655586392263e+00 0.0000000000000000e+00 0.0000000000000000e+00  1.0007587227296739e+00 0.0000000000000000e+00 0.0000000000000000e+00  1.0018444800607564e+00 0.0000000000000000e+00 0.0000000000000000e+00  1.0023026312841019e+00 0.0000000000000000e+00 0.0000000000000000e+00  1.0027562413110069e+00 0.0000000000000000e+00 0.0000000000000000e+00  1.0037353062974650e+00 0.0000000000000000e+00 0.0000000000000000e+00  1.0051005686631991e+00 0.0000000000000000e+00 0.0000000000000000e+00  1.0063344471210485e+00 0.0000000000000000e+00 0.0000000000000000e+00  1.0078925565425250e+00 0.0000000000000000e+00 0.0000000000000000e+00  1.0101719267168685e+00 0.0000000000000000e+00 0.0000000000000000e+00  1.0125477240914962e+00 0.0000000000000000e+00 0.0000000000000000e+00  1.0164840871630594e+00 0.0000000000000000e+00 0.0000000000000000e+00  1.0182063451179721e+00 0.0000000000000000e+00 0.0000000000000000e+00  1.0227510118840961e+00 0.0000000000000000e+00 0.0000000000000000e+00  1.0294756597335195e+00 0.0000000000000000e+00 0.0000000000000000e+00  1.0348565928935656e+00 0.0000000000000000e+00 0.0000000000000000e+00  1.0505065770760516e+00 0.0000000000000000e+00 0.0000000000000000e+00  1.0585807764454398e+00 0.0000000000000000e+00 0.0000000000000000e+00  1.0658395976483908e+00 0.0000000000000000e+00 0.0000000000000000e+00  1.0732065811230038e+00 0.0000000000000000e+00 0.0000000000000000e+00  1.0786635249433656e+00 0.0000000000000000e+00 0.0000000000000000e+00  1.0829143615918946e+00 0.0000000000000000e+00 0.0000000000000000e+00  1.0862784223775170e+00 0.0000000000000000e+00 0.0000000000000000e+00  1.0867508012980767e+00 0.0000000000000000e+00 0.0000000000000000e+00  1.0862833235665244e+00 0.0000000000000000e+00 0.0000000000000000e+00  1.0845441604152120e+00 0.0000000000000000e+00 0.0000000000000000e+00  1.0827155187391528e+00 0.0000000000000000e+00 0.0000000000000000e+00  1.0799941073631179e+00 0.0000000000000000e+00 0.0000000000000000e+00  1.0788009643674414e+00 0.0000000000000000e+00 0.0000000000000000e+00  1.0780825192189234e+00 0.0000000000000000e+00 0.0000000000000000e+00  1.0775343681921437e+00 0.0000000000000000e+00 0.0000000000000000e+00  1.0772398425677376e+00 0.0000000000000000e+00 0.0000000000000000e+00  1.0760891083003976e+00 0.0000000000000000e+00 0.0000000000000000e+00  1.0736833861194526e+00 0.0000000000000000e+00 0.0000000000000000e+00  1.0693171727803246e+00 0.0000000000000000e+00 0.0000000000000000e+00  1.0631540706302236e+00 0.0000000000000000e+00 0.0000000000000000e+00  1.0570541984841400e+00 0.0000000000000000e+00 0.0000000000000000e+00  1.0511966347602448e+00 0.0000000000000000e+00 0.0000000000000000e+00  1.0448132276340021e+00 0.0000000000000000e+00 0.0000000000000000e+00  1.0410016815161867e+00 0.0000000000000000e+00 0.0000000000000000e+00  1.0392729627560187e+00 0.0000000000000000e+00 0.0000000000000000e+00  1.0400305932082408e+00 0.0000000000000000e+00 0.0000000000000000e+00  1.0435695544037082e+00 0.0000000000000000e+00 0.0000000000000000e+00  1.0483400915943788e+00 0.0000000000000000e+00 0.0000000000000000e+00  1.0537168545560327e+00 0.0000000000000000e+00 0.0000000000000000e+00  1.0589727640463342e+00 0.0000000000000000e+00 0.0000000000000000e+00  1.0616451016226334e+00 0.0000000000000000e+00 0.0000000000000000e+00  1.0619240989320351e+00 0.0000000000000000e+00 0.0000000000000000e+00  1.0611835967036067e+00 0.0000000000000000e+00 0.0000000000000000e+00  1.0574657794514366e+00 0.0000000000000000e+00 0.0000000000000000e+00  1.0525299703323099e+00 0.0000000000000000e+00 0.0000000000000000e+00  1.0485916653423784e+00 0.0000000000000000e+00 0.0000000000000000e+00  1.0448810914515383e+00 0.0000000000000000e+00 0.0000000000000000e+00  1.0428285702291564e+00 0.0000000000000000e+00 0.0000000000000000e+00  1.0445053444306343e+00 0.0000000000000000e+00 0.0000000000000000e+00  1.0472029422538047e+00 0.0000000000000000e+00 0.0000000000000000e+00  1.0512863675305248e+00 0.0000000000000000e+00 0.0000000000000000e+00  1.0567629616965097e+00 0.0000000000000000e+00 0.0000000000000000e+00  1.0610008333854204e+00 0.0000000000000000e+00 0.0000000000000000e+00  1.0637091657084092e+00 0.0000000000000000e+00 0.0000000000000000e+00  1.0649885192669437e+00 0.0000000000000000e+00 0.0000000000000000e+00  1.0632248267430435e+00 0.0000000000000000e+00 0.0000000000000000e+00  1.0594519325981986e+00 0.0000000000000000e+00 0.0000000000000000e+00  1.0572840071385345e+00 0.0000000000000000e+00 0.0000000000000000e+00  1.0533369241531607e+00 0.0000000000000000e+00 0.0000000000000000e+00  1.0487879459497815e+00 0.0000000000000000e+00 0.0000000000000000e+00  1.0471803547307619e+00 0.0000000000000000e+00 0.0000000000000000e+00  1.0490808110371899e+00 0.0000000000000000e+00 0.0000000000000000e+00  1.0519060908080571e+00 0.0000000000000000e+00 0.0000000000000000e+00  1.0604277373862794e+00 0.0000000000000000e+00 0.0000000000000000e+00  1.0631117964644055e+00 0.0000000000000000e+00 0.0000000000000000e+00  1.0642455021619313e+00 0.0000000000000000e+00 0.0000000000000000e+00  1.0644334952516927e+00 0.0000000000000000e+00 0.0000000000000000e+00  1.0625462039260467e+00 0.0000000000000000e+00 0.0000000000000000e+00  1.0591289638289669e+00 0.0000000000000000e+00 0.0000000000000000e+00  1.0552340451363045e+00 0.0000000000000000e+00 0.0000000000000000e+00  1.0524977304896941e+00 0.0000000000000000e+00 0.0000000000000000e+00  1.0511886391467145e+00 0.0000000000000000e+00 0.0000000000000000e+00  1.0514795355315507e+00 0.0000000000000000e+00 0.0000000000000000e+00  1.0541533722369913e+00 0.0000000000000000e+00 0.0000000000000000e+00  1.0581058085969142e+00 0.0000000000000000e+00 0.0000000000000000e+00  1.0622294993845529e+00 0.0000000000000000e+00 0.0000000000000000e+00  1.0664588474626004e+00 0.0000000000000000e+00 0.0000000000000000e+00  1.0693132747038223e+00 0.0000000000000000e+00 0.0000000000000000e+00  1.0710500891780987e+00 0.0000000000000000e+00 0.0000000000000000e+00  1.0701677075169200e+00 0.0000000000000000e+00 0.0000000000000000e+00  1.0687706349805117e+00 0.0000000000000000e+00 0.0000000000000000e+00  1.0667987637262271e+00 0.0000000000000000e+00 0.0000000000000000e+00  1.0661852081752701e+00 0.0000000000000000e+00 0.0000000000000000e+00  1.0665771224184715e+00 0.0000000000000000e+00 0.0000000000000000e+00  1.0700114467419826e+00 0.0000000000000000e+00 0.0000000000000000e+00  1.0749764377512681e+00 0.0000000000000000e+00 0.0000000000000000e+00  1.0828462911797552e+00 -8.4380924474901607e-03 0.0000000000000000e+00  1.0821602454081636e+00 -1.8399902948761579e-02 0.0000000000000000e+00  1.0800951319695893e+00 -3.1353161643301958e-02 0.0000000000000000e+00  1.0732929270314651e+00 -4.9137353367518927e-02 0.0000000000000000e+00  1.0626825001190061e+00 -7.7237682696669405e-02 0.0000000000000000e+00  1.0474679813529038e+00 -1.1789557701632770e-01 0.0000000000000000e+00  1.0204460431778326e+00 -1.7724188189375156e-01 0.0000000000000000e+00  9.6690283346961836e-01 -2.3302603463654728e-01 0.0000000000000000e+00  8.8625285591983183e-01 -2.7390628175581844e-01 0.0000000000000000e+00  8.0303119859118943e-01 -2.9140617463044399e-01 0.0000000000000000e+00  7.4789302662484825e-01 -2.9086182234426244e-01 0.0000000000000000e+00  7.3971479904051729e-01 -2.8192122736719583e-01 0.0000000000000000e+00  7.7879585452824818e-01 -2.7238003240718262e-01 0.0000000000000000e+00  8.5950462914409065e-01 -2.5696930810051627e-01 0.0000000000000000e+00  9.5936127813643768e-01 -2.2631200119657369e-01 0.0000000000000000e+00  1.0464090505562247e+00 -1.7342140837232592e-01 0.0000000000000000e+00  1.0953232679308533e+00 -1.1975087544045834e-01 0.0000000000000000e+00  1.1106997205768927e+00 -7.0652933245068494e-02 0.0000000000000000e+00  1.1052249721357781e+00 -3.9446365292984717e-02 0.0000000000000000e+00  1.0963966449212588e+00 -1.9585512226109349e-02 0.0000000000000000e+00  1.0898875951664870e+00 -9.2959841443174401e-03 0.0000000000000000e+00  1.0867586060380015e+00 -4.2388396946261295e-03 0.0000000000000000e+00  1.0842977506380356e+00 -1.6737696802971874e-03 0.0000000000000000e+00  1.0837888330361976e+00 0.0000000000000000e+00 0.0000000000000000e+00  1.0832208361139075e+00 0.0000000000000000e+00 0.0000000000000000e+00  1.0807568970765025e+00 0.0000000000000000e+00 0.0000000000000000e+00  1.0767635416397958e+00 0.0000000000000000e+00 0.0000000000000000e+00  1.0709510960638982e+00 0.0000000000000000e+00 0.0000000000000000e+00  1.0654661893445658e+00 0.0000000000000000e+00 0.0000000000000000e+00  1.0609158896166102e+00 0.0000000000000000e+00 0.0000000000000000e+00  1.0582159548939425e+00 0.0000000000000000e+00 0.0000000000000000e+00  1.0569906192631242e+00 0.0000000000000000e+00 0.0000000000000000e+00  1.0580685123220286e+00 0.0000000000000000e+00 0.0000000000000000e+00  1.0605619471523817e+00 0.0000000000000000e+00 0.0000000000000000e+00  1.0634681997618451e+00 0.0000000000000000e+00 0.0000000000000000e+00  1.0660256429945816e+00 0.0000000000000000e+00 0.0000000000000000e+00  1.0679838241399351e+00 0.0000000000000000e+00 0.0000000000000000e+00  1.0673325954216815e+00 0.0000000000000000e+00 0.0000000000000000e+00  1.0658569300696463e+00 0.0000000000000000e+00 0.0000000000000000e+00  1.0616024822052554e+00 0.0000000000000000e+00 0.0000000000000000e+00  1.0572546774406091e+00 0.0000000000000000e+00 0.0000000000000000e+00  1.0531095826947896e+00 0.0000000000000000e+00 0.0000000000000000e+00  1.0507552725672382e+00 0.0000000000000000e+00 0.0000000000000000e+00  1.0500601426029224e+00 0.0000000000000000e+00 0.0000000000000000e+00  1.0510750444598880e+00 0.0000000000000000e+00 0.0000000000000000e+00  1.0542460767816249e+00 0.0000000000000000e+00 0.0000000000000000e+00  1.0611320715667358e+00 0.0000000000000000e+00 0.0000000000000000e+00  1.0638224090840018e+00 0.0000000000000000e+00 0.0000000000000000e+00  1.0635897715624636e+00 0.0000000000000000e+00 0.0000000000000000e+00  1.0628331005056104e+00 0.0000000000000000e+00 0.0000000000000000e+00  1.0611088154408552e+00 0.0000000000000000e+00 0.0000000000000000e+00  1.0571683551014155e+00 0.0000000000000000e+00 0.0000000000000000e+00  1.0511451991470393e+00 0.0000000000000000e+00 0.0000000000000000e+00  1.0483368468489234e+00 0.0000000000000000e+00 0.0000000000000000e+00  1.0469855788566631e+00 0.0000000000000000e+00 0.0000000000000000e+00  1.0467756507664780e+00 0.0000000000000000e+00 0.0000000000000000e+00  1.0491241725937259e+00 0.0000000000000000e+00 0.0000000000000000e+00  1.0529294771555759e+00 0.0000000000000000e+00 0.0000000000000000e+00  1.0565976842697651e+00 0.0000000000000000e+00 0.0000000000000000e+00  1.0605301854550895e+00 0.0000000000000000e+00 0.0000000000000000e+00  1.0628067057207793e+00 0.0000000000000000e+00 0.0000000000000000e+00  1.0620994019369723e+00 0.0000000000000000e+00 0.0000000000000000e+00  1.0602132400622086e+00 0.0000000000000000e+00 0.0000000000000000e+00  1.0562808369322376e+00 0.0000000000000000e+00 0.0000000000000000e+00  1.0503116321673827e+00 0.0000000000000000e+00 0.0000000000000000e+00  1.0454174723676730e+00 0.0000000000000000e+00 0.0000000000000000e+00  1.0414704220425393e+00 0.0000000000000000e+00 0.0000000000000000e+00  1.0383971523814053e+00 0.0000000000000000e+00 0.0000000000000000e+00  1.0392823947616234e+00 0.0000000000000000e+00 0.0000000000000000e+00  1.0423254962287110e+00 0.0000000000000000e+00 0.0000000000000000e+00  1.0464563090337946e+00 0.0000000000000000e+00 0.0000000000000000e+00  1.0518851291023879e+00 0.0000000000000000e+00 0.0000000000000000e+00  1.0572729032996484e+00 0.0000000000000000e+00 0.0000000000000000e+00  1.0610715773980084e+00 0.0000000000000000e+00 0.0000000000000000e+00  1.0633767923451780e+00 0.0000000000000000e+00 0.0000000000000000e+00  1.0634052901473932e+00 0.0000000000000000e+00 0.0000000000000000e+00  1.0612203503534674e+00 0.0000000000000000e+00 0.0000000000000000e+00  1.0585036748000425e+00 0.0000000000000000e+00 0.0000000000000000e+00  1.0544956015692883e+00 0.0000000000000000e+00 0.0000000000000000e+00  1.0517372103838303e+00 0.0000000000000000e+00 0.0000000000000000e+00  1.0515931054710164e+00 0.0000000000000000e+00 0.0000000000000000e+00  1.0535735119767806e+00 0.0000000000000000e+00 0.0000000000000000e+00  1.0573318939776459e+00 0.0000000000000000e+00 0.0000000000000000e+00  1.0626697248497396e+00 0.0000000000000000e+00 0.0000000000000000e+00  1.0696331131102466e+00 0.0000000000000000e+00 0.0000000000000000e+00  1.0778323070813878e+00 0.0000000000000000e+00 0.0000000000000000e+00  1.0849389701696923e+00 0.0000000000000000e+00 0.0000000000000000e+00  1.0906506275638450e+00 0.0000000000000000e+00 0.0000000000000000e+00  1.0961573105318487e+00 0.0000000000000000e+00 0.0000000000000000e+00  1.0979341580910298e+00 0.0000000000000000e+00 0.0000000000000000e+00  1.0984784959537974e+00 0.0000000000000000e+00 0.0000000000000000e+00  1.0965181215395188e+00 0.0000000000000000e+00 0.0000000000000000e+00  1.0920563978498081e+00 0.0000000000000000e+00 0.0000000000000000e+00  1.0860831272799354e+00 0.0000000000000000e+00 0.0000000000000000e+00  1.0791500610472196e+00 0.0000000000000000e+00 0.0000000000000000e+00  1.0714128886159744e+00 0.0000000000000000e+00 0.0000000000000000e+00  1.0624826804730223e+00 0.0000000000000000e+00 0.0000000000000000e+00  1.0545074763696372e+00 0.0000000000000000e+00 0.0000000000000000e+00  1.0460926722808743e+00 0.0000000000000000e+00 0.0000000000000000e+00  1.0306547510773942e+00 0.0000000000000000e+00 0.0000000000000000e+00  1.0241708189566783e+00 0.0000000000000000e+00 0.0000000000000000e+00  1.0190758315218702e+00 0.0000000000000000e+00 0.0000000000000000e+00  1.0145284664947714e+00 0.0000000000000000e+00 0.0000000000000000e+00  1.0108233488752849e+00 0.0000000000000000e+00 0.0000000000000000e+00  1.0079203791047651e+00 0.0000000000000000e+00 0.0000000000000000e+00  1.0057534716616321e+00 0.0000000000000000e+00 0.0000000000000000e+00  1.0036675870259943e+00 0.0000000000000000e+00 0.0000000000000000e+00  1.0023092415536676e+00 0.0000000000000000e+00 0.0000000000000000e+00  1.0014343927430127e+00 0.0000000000000000e+00 0.0000000000000000e+00  1.0004444054678210e+00 0.0000000000000000e+00 0.0000000000000000e+00  1.0004949709508761e+00 0.0000000000000000e+00 0.0000000000000000e+00  9.9965708675388432e-01 0.0000000000000000e+00 0.0000000000000000e+00  9.9983129208843680e-01 0.0000000000000000e+00 0.0000000000000000e+00  9.9959005495371900e-01 0.0000000000000000e+00 0.0000000000000000e+00  1.0003940943780203e+00 0.0000000000000000e+00 0.0000000000000000e+00  1.0002175426924591e+00 0.0000000000000000e+00 0.0000000000000000e+00  9.9979404866354549e-01 0.0000000000000000e+00 0.0000000000000000e+00  1.0000001317386333e+00 0.0000000000000000e+00 0.0000000000000000e+00  1.0000001317386333e+00 0.0000000000000000e+00 0.0000000000000000e+00  1.0000001317386333e+00 0.0000000000000000e+00 0.0000000000000000e+00  1.0000001317386333e+00 0.0000000000000000e+00 0.0000000000000000e+00  1.0000001317386333e+00 0.0000000000000000e+00 0.0000000000000000e+00  1.0000001317386333e+00 0.0000000000000000e+00 0.0000000000000000e+00  1.0000001317386333e+00 0.0000000000000000e+00 0.0000000000000000e+00  1.0000001317386333e+00 0.0000000000000000e+00 0.0000000000000000e+00  1.0000001317386333e+00 0.0000000000000000e+00 0.0000000000000000e+00  1.0000001317386333e+00 0.0000000000000000e+00 0.0000000000000000e+00  1.0000001317386333e+00 0.0000000000000000e+00 0.0000000000000000e+00  1.0000001317386333e+00 0.0000000000000000e+00 0.0000000000000000e+00  1.0000001317386333e+00 0.0000000000000000e+00 0.0000000000000000e+00  1.0000001317386333e+00 0.0000000000000000e+00 0.0000000000000000e+00  1.0000001317386333e+00 0.0000000000000000e+00 0.0000000000000000e+00  1.0000001317386333e+00 0.0000000000000000e+00 0.0000000000000000e+00  1.0000001317386333e+00 0.0000000000000000e+00 0.0000000000000000e+00  1.0000001317386333e+00 0.0000000000000000e+00 0.0000000000000000e+00  1.0000001317386333e+00 0.0000000000000000e+00 0.0000000000000000e+00  1.0000001317386333e+00 0.0000000000000000e+00 0.0000000000000000e+00  1.0422124631692125e+00 -9.2203901623423585e-03 0.0000000000000000e+00  1.0395747676164873e+00 -1.8713751136703552e-02 0.0000000000000000e+00  1.0379078893780167e+00 -2.9208106935301931e-02 0.0000000000000000e+00  1.0329350973477058e+00 -4.0411353400269405e-02 0.0000000000000000e+00  1.0281432596615225e+00 -5.5800525867127665e-02 0.0000000000000000e+00  1.0328935262254388e+00 -5.8913761754928670e-02 0.0000000000000000e+00  1.0372359656571559e+00 -6.2040199920300271e-02 0.0000000000000000e+00  1.0426166626319060e+00 -6.4779559004753892e-02 0.0000000000000000e+00  1.0482434985106679e+00 -6.7287449717846268e-02 0.0000000000000000e+00  1.0544871655608226e+00 -6.9277619809542057e-02 0.0000000000000000e+00  1.0612820048357723e+00 -7.0811942416136142e-02 0.0000000000000000e+00  1.0684739049914376e+00 -7.1568839244138385e-02 0.0000000000000000e+00  1.0761255726409364e+00 -7.1654065163588007e-02 0.0000000000000000e+00  1.0838065830565700e+00 -7.0721416905088541e-02 0.0000000000000000e+00  1.0917158986535005e+00 -6.9014977230480001e-02 0.0000000000000000e+00  1.0995169698916005e+00 -6.6413603635481377e-02 0.0000000000000000e+00  1.1072500777659953e+00 -6.2598922903508838e-02 0.0000000000000000e+00  1.1144026340978945e+00 -5.7716007766081698e-02 0.0000000000000000e+00  1.1210202174649979e+00 -5.2035154307309359e-02 0.0000000000000000e+00  1.1269234885992472e+00 -4.5455371787216238e-02 0.0000000000000000e+00  1.1318377964001618e+00 -3.8054381079123463e-02 0.0000000000000000e+00  1.1357351837839786e+00 -3.0037479022027056e-02 0.0000000000000000e+00  1.1384730326417931e+00 -2.1601563973212830e-02 0.0000000000000000e+00  1.1400064061179025e+00 -1.2661380459232449e-02 0.0000000000000000e+00  1.1402641895084142e+00 -3.8769442233098227e-03 0.0000000000000000e+00  1.1392325915872348e+00 5.0765064740086558e-03 0.0000000000000000e+00  1.1367309561539600e+00 1.3815963857710445e-02 0.0000000000000000e+00  1.1331433297038165e+00 2.1947309951463000e-02 0.0000000000000000e+00  1.1281808649885066e+00 2.9339830470989484e-02 0.0000000000000000e+00  1.1221481177222867e+00 3.5867332068932029e-02 0.0000000000000000e+00  1.1151086136210280e+00 4.1348189265524117e-02 0.0000000000000000e+00  1.1072546986051364e+00 4.5424742884592681e-02 0.0000000000000000e+00  1.0987837860950227e+00 4.8209040049820934e-02 0.0000000000000000e+00  1.0899392679191686e+00 4.9590417254582166e-02 0.0000000000000000e+00  1.0810692854843051e+00 4.9302990357945040e-02 0.0000000000000000e+00  1.0723272396064270e+00 4.7497