<?xml version="1.0"?>
<VTKFile type="UnstructuredGrid"  version="0.1"  >
<UnstructuredGrid>
<Piece  NumberOfPoints="10199" NumberOfCells="20110">
<Points>
<DataArray  type="Float64"  NumberOfComponents="3"  format="ascii">0 -5 0  8 -5 0  30 -5 0  40 -5 0  40 5 0  30 5 0  8 5 0  0 5 0  8 -2.5 0  15 -2.5 0  30 -2.5 0  30 2.5 0  15 2.5 0  8 2.5 0  10 0.5 0  10 -0.5 0  0 0 0  0.4210526315780956 -5 0  0.8421052631563433 -5 0  1.263157894734281 -5 0  1.684210526311999 -5 0  2.105263157889717 -5 0  2.526315789467435 -5 0  2.947368421045153 -5 0  3.368421052622872 -5 0  3.78947368420059 -5 0  4.210526315779479 -5 0  4.631578947359537 -5 0  5.052631578939595 -5 0  5.473684210519653 -5 0  5.89473684209971 -5 0  6.315789473679768 -5 0  6.736842105259826 -5 0  7.157894736839884 -5 0  7.578947368419942 -5 0  8.407407407405314 -5 0  8.814814814810628 -5 0  9.222222222215942 -5 0  9.629629629621256 -5 0  10.03703703702657 -5 0  10.44444444443188 -5 0  10.8518518518372 -5 0  11.25925925924251 -5 0  11.66666666664783 -5 0  12.07407407405314 -5 0  12.48148148145846 -5 0  12.88888888886377 -5 0  13.29629629626908 -5 0  13.7037037036744 -5 0  14.11111111107971 -5 0  14.51851851848502 -5 0  14.92592592589034 -5 0  15.33333333329565 -5 0  15.74074074070096 -5 0  16.14814814810754 -5 0  16.55555555551614 -5 0  16.96296296292474 -5 0  17.37037037033335 -5 0  17.77777777774195 -5 0  18.18518518515056 -5 0  18.59259259255916 -5 0  18.99999999996776 -5 0  19.40740740737636 -5 0  19.81481481478497 -5 0  20.22222222219357 -5 0  20.62962962960217 -5 0  21.03703703701077 -5 0  21.44444444441937 -5 0  21.85185185182797 -5 0  22.25925925923657 -5 0  22.66666666664518 -5 0  23.07407407405378 -5 0  23.48148148146238 -5 0  23.88888888887098 -5 0  24.29629629627958 -5 0  24.70370370368818 -5 0  25.11111111109678 -5 0  25.51851851850539 -5 0  25.92592592591399 -5 0  26.33333333332259 -5 0  26.74074074073119 -5 0  27.14814814813979 -5 0  27.55555555554839 -5 0  27.96296296295699 -5 0  28.3703703703656 -5 0  28.7777777777742 -5 0  29.1851851851828 -5 0  29.5925925925914 -5 0  30.41666666667852 -5 0  30.83333333335704 -5 0  31.25000000003556 -5 0  31.66666666671408 -5 0  32.08333333338936 -5 0  32.50000000005308 -5 0  32.9166666667168 -5 0  33.33333333338052 -5 0  33.75000000004424 -5 0  34.16666666670795 -5 0  34.58333333337167 -5 0  35.00000000003539 -5 0  35.41666666669911 -5 0  35.83333333336282 -5 0  36.25000000002654 -5 0  36.66666666669026 -5 0  37.08333333335398 -5 0  37.50000000001769 -5 0  37.91666666668141 -5 0  38.33333333334513 -5 0  38.75000000000885 -5 0  39.16666666667257 -5 0  39.58333333333628 -5 0  40 -4.583333333332821 0  40 -4.166666666665642 0  40 -3.74999999999855 0  40 -3.333333333333135 0  40 -2.916666666667806 0  40 -2.500000000002478 0  40 -2.083333333337148 0  40 -1.666666666671818 0  40 -1.250000000006488 0  40 -0.8333333333405228 0  40 -0.4166666666733416 0  40 -6.163070054299169e-12 0  40 0.4166666666610173 0  40 0.8333333333281976 0  40 1.249999999995378 0  40 1.666666666662558 0  40 2.083333333329739 0  40 2.499999999996919 0  40 2.916666666664099 0  40 3.33333333333128 0  40 3.74999999999846 0  40 4.166666666665641 0  40 4.583333333332821 0  39.58333333333628 5 0  39.16666666667256 5 0  38.75000000000885 5 0  38.33333333334513 5 0  37.91666666668141 5 0  37.50000000001769 5 0  37.08333333335398 5 0  36.66666666669025 5 0  36.25000000002654 5 0  35.83333333336282 5 0  35.41666666669911 5 0  35.00000000003539 5 0  34.58333333337167 5 0  34.16666666670795 5 0  33.75000000004424 5 0  33.33333333338052 5 0  32.9166666667168 5 0  32.50000000005308 5 0  32.08333333338936 5 0  31.66666666671408 5 0  31.25000000003556 5 0  30.83333333335704 5 0  30.41666666667852 5 0  29.59259259259259 5 0  29.18518518518519 5 0  28.77777777777778 5 0  28.37037037037037 5 0  27.96296296296296 5 0  27.55555555555556 5 0  27.14814814814815 5 0  26.74074074074074 5 0  26.33333333333333 5 0  25.92592592592593 5 0  25.51851851851852 5 0  25.11111111111111 5 0  24.7037037037037 5 0  24.2962962962963 5 0  23.88888888888889 5 0  23.48148148148148 5 0  23.07407407407408 5 0  22.66666666666667 5 0  22.25925925925926 5 0  21.85185185185185 5 0  21.44444444444445 5 0  21.03703703703704 5 0  20.62962962962963 5 0  20.22222222222222 5 0  19.81481481481482 5 0  19.40740740740741 5 0  19 5 0  18.5925925925926 5 0  18.18518518518519 5 0  17.77777777777778 5 0  17.37037037037037 5 0  16.96296296296296 5 0  16.55555555555556 5 0  16.14814814814815 5 0  15.74074074074074 5 0  15.33333333333333 5 0  14.92592592592593 5 0  14.51851851851852 5 0  14.11111111111111 5 0  13.70370370370371 5 0  13.2962962962963 5 0  12.88888888888889 5 0  12.48148148148148 5 0  12.07407407407408 5 0  11.66666666666667 5 0  11.25925925925926 5 0  10.85185185185185 5 0  10.44444444444445 5 0  10.03703703703704 5 0  9.629629629629633 5 0  9.222222222222221 5 0  8.814814814814817 5 0  8.407407407407408 5 0  7.5789473684193 5 0  7.157894736838599 5 0  6.73684210526082 5 0  6.315789473684795 5 0  5.894736842108769 5 0  5.473684210532742 5 0  5.052631578956715 5 0  4.631578947380689 5 0  4.210526315804662 5 0  3.789473684226299 5 0  3.368421052645599 5 0  2.947368421064898 5 0  2.526315789484198 5 0  2.105263157903499 5 0  1.6842105263228 5 0  1.2631578947421 5 0  0.8421052631613994 5 0  0.4210526315806993 5 0  0 4.545454545454545 0  0 4.09090909090909 0  0 3.636363636363634 0  0 3.18181818181818 0  0 2.727272727272726 0  0 2.272727272727271 0  0 1.818181818181817 0  0 1.363636363636363 0  0 0.9090909090909092 0  0 0.454545454545455 0  0 -0.4545454545450807 0  0 -0.9090909090895867 0  0 -1.363636363633713 0  0 -1.818181818177841 0  0 -2.272727272723127 0  0 -2.727272727269273 0  0 -3.181818181815419 0  0 -3.636363636361564 0  0 -4.090909090907709 0  0 -4.545454545453855 0  8 -4.499999999999999 0  8 -3.999999999999999 0  8 -3.499999999999999 0  8 -3 0  8.137254901963859 -2.5 0  8.274509803926303 -2.5 0  8.411764705886863 -2.5 0  8.549019607849138 -2.5 0  8.686274509809513 -2.5 0  8.82352941176989 -2.5 0  8.960784313730265 -2.5 0  9.098039215690642 -2.5 0  9.235294117651017 -2.5 0  9.372549019611395 -2.5 0  9.50980392157177 -2.5 0  9.647058823532147 -2.5 0  9.784313725492522 -2.5 0  9.921568627452897 -2.5 0  10.05882352941327 -2.5 0  10.19607843137365 -2.5 0  10.33333333333402 -2.5 0  10.4705882352944 -2.5 0  10.60784313725478 -2.5 0  10.74509803921515 -2.5 0  10.88235294117553 -2.5 0  11.0196078431359 -2.5 0  11.15686274509628 -2.5 0  11.29411764705665 -2.5 0  11.43137254901703 -2.5 0  11.56862745097915 -2.5 0  11.70588235294301 -2.5 0  11.84313725490686 -2.5 0  11.98039215687072 -2.5 0  12.11764705883209 -2.5 0  12.25490196079247 -2.5 0  12.39215686275285 -2.5 0  12.52941176471322 -2.5 0  12.6666666666736 -2.5 0  12.80392156863397 -2.5 0  12.94117647059435 -2.5 0  13.07843137255473 -2.5 0  13.2156862745151 -2.5 0  13.35294117647548 -2.5 0  13.49019607843586 -2.5 0  13.62745098039623 -2.5 0  13.76470588235661 -2.5 0  13.90196078431699 -2.5 0  14.03921568627736 -2.5 0  14.17647058823774 -2.5 0  14.31372549019812 -2.5 0  14.45098039215849 -2.5 0  14.58823529411887 -2.5 0  14.72549019607925 -2.5 0  14.86274509803962 -2.5 0  15.20270270270254 -2.5 0  15.40540540540509 -2.5 0  15.60810810810763 -2.5 0  15.81081081081017 -2.5 0  16.01351351351227 -2.5 0  16.21621621621265 -2.5 0  16.41891891891279 -2.5 0  16.62162162161294 -2.5 0  16.82432432431308 -2.5 0  17.02702702701322 -2.5 0  17.22972972971337 -2.5 0  17.43243243241351 -2.5 0  17.63513513511365 -2.5 0  17.83783783781379 -2.5 0  18.04054054051394 -2.5 0  18.24324324321408 -2.5 0  18.44594594591422 -2.5 0  18.64864864861436 -2.5 0  18.85135135131451 -2.5 0  19.05405405401465 -2.5 0  19.25675675671479 -2.5 0  19.45945945941494 -2.5 0  19.66216216211508 -2.5 0  19.86486486481522 -2.5 0  20.06756756751536 -2.5 0  20.27027027021551 -2.5 0  20.47297297291565 -2.5 0  20.6756756756158 -2.5 0  20.87837837831594 -2.5 0  21.08108108101608 -2.5 0  21.28378378371622 -2.5 0  21.48648648641637 -2.5 0  21.68918918911651 -2.5 0  21.89189189181666 -2.5 0  22.0945945945168 -2.5 0  22.29729729721694 -2.5 0  22.49999999991778 -2.5 0  22.70270270262203 -2.5 0  22.90540540532697 -2.5 0  23.10810810803191 -2.5 0  23.31081081073686 -2.5 0  23.5135135134418 -2.5 0  23.71621621614674 -2.5 0  23.91891891885169 -2.5 0  24.12162162155663 -2.5 0  24.32432432426158 -2.5 0  24.52702702696652 -2.5 0  24.72972972967146 -2.5 0  24.93243243237641 -2.5 0  25.13513513508135 -2.5 0  25.3378378377863 -2.5 0  25.54054054049124 -2.5 0  25.74324324319618 -2.5 0  25.94594594590112 -2.5 0  26.14864864860607 -2.5 0  26.35135135131101 -2.5 0  26.55405405401596 -2.5 0  26.7567567567209 -2.5 0  26.95945945942584 -2.5 0  27.16216216213079 -2.5 0  27.36486486483573 -2.5 0  27.56756756754068 -2.5 0  27.77027027024562 -2.5 0  27.97297297295056 -2.5 0  28.1756756756555 -2.5 0  28.37837837836045 -2.5 0  28.5810810810654 -2.5 0  28.78378378377034 -2.5 0  28.98648648647528 -2.5 0  29.18918918918023 -2.5 0  29.39189189188517 -2.5 0  29.59459459459011 -2.5 0  29.79729729729506 -2.5 0  30 -3.000000000000001 0  30 -3.500000000000001 0  30 -4.000000000000001 0  30 -4.5 0  8 4.499999999999999 0  8 3.999999999999999 0  8 3.499999999999999 0  8 3 0  8.137254901963859 2.5 0  8.274509803926303 2.5 0  8.411764705886863 2.5 0  8.549019607849138 2.5 0  8.686274509809513 2.5 0  8.82352941176989 2.5 0  8.960784313730265 2.5 0  9.098039215690642 2.5 0  9.235294117651017 2.5 0  9.372549019611395 2.5 0  9.50980392157177 2.5 0  9.647058823532147 2.5 0  9.784313725492522 2.5 0  9.921568627452897 2.5 0  10.05882352941327 2.5 0  10.19607843137365 2.5 0  10.33333333333402 2.5 0  10.4705882352944 2.5 0  10.60784313725478 2.5 0  10.74509803921515 2.5 0  10.88235294117553 2.5 0  11.0196078431359 2.5 0  11.15686274509628 2.5 0  11.29411764705665 2.5 0  11.43137254901703 2.5 0  11.56862745097915 2.5 0  11.70588235294301 2.5 0  11.84313725490686 2.5 0  11.98039215687072 2.5 0  12.11764705883209 2.5 0  12.25490196079247 2.5 0  1
[...]
<PointData  Vectors="f_17"> 
<DataArray  type="Float64"  Name="f_17"  NumberOfComponents="3" format="ascii">1.0000001301795256e+00 0.0000000000000000e+00 0.0000000000000000e+00  1.0425156035452658e+00 0.0000000000000000e+00 0.0000000000000000e+00  1.0524543334210630e+00 0.0000000000000000e+00 0.0000000000000000e+00  1.0766376754149138e+00 0.0000000000000000e+00 0.0000000000000000e+00  1.0876251297285211e+00 0.0000000000000000e+00 0.0000000000000000e+00  1.0619628620001023e+00 0.0000000000000000e+00 0.0000000000000000e+00  1.0383396463660153e+00 0.0000000000000000e+00 0.0000000000000000e+00  1.0000001301795256e+00 0.0000000000000000e+00 0.0000000000000000e+00  1.0237039355408437e+00 -5.2526720336423076e-02 0.0000000000000000e+00  1.1031010512210089e+00 -5.2128465644453434e-02 0.0000000000000000e+00  1.0316965738308859e+00 -7.3206168053804144e-02 0.0000000000000000e+00  1.0898635420017104e+00 -6.7642595098271127e-02 0.0000000000000000e+00  1.0228556732862351e+00 -8.1364712289387076e-02 0.0000000000000000e+00  1.0190820719579503e+00 4.9056671545503694e-02 0.0000000000000000e+00  0.0000000000000000e+00 0.0000000000000000e+00 0.0000000000000000e+00  0.0000000000000000e+00 0.0000000000000000e+00 0.0000000000000000e+00  1.0000001301795256e+00 0.0000000000000000e+00 0.0000000000000000e+00  9.9928583914500502e-01 0.0000000000000000e+00 0.0000000000000000e+00  9.9871750485398259e-01 0.0000000000000000e+00 0.0000000000000000e+00  1.0007821427316002e+00 0.0000000000000000e+00 0.0000000000000000e+00  1.0006152825156669e+00 0.0000000000000000e+00 0.0000000000000000e+00  1.0016395254793065e+00 0.0000000000000000e+00 0.0000000000000000e+00  1.0020370922506427e+00 0.0000000000000000e+00 0.0000000000000000e+00  1.0024481837552222e+00 0.0000000000000000e+00 0.0000000000000000e+00  1.0034063714181725e+00 0.0000000000000000e+00 0.0000000000000000e+00  1.0047535271481460e+00 0.0000000000000000e+00 0.0000000000000000e+00  1.0059942986762129e+00 0.0000000000000000e+00 0.0000000000000000e+00  1.0075488587640977e+00 0.0000000000000000e+00 0.0000000000000000e+00  1.0098443237183705e+00 0.0000000000000000e+00 0.0000000000000000e+00  1.0122190911514599e+00 0.0000000000000000e+00 0.0000000000000000e+00  1.0161392776133746e+00 0.0000000000000000e+00 0.0000000000000000e+00  1.0178492076758601e+00 0.0000000000000000e+00 0.0000000000000000e+00  1.0223831641498486e+00 0.0000000000000000e+00 0.0000000000000000e+00  1.0291232419448866e+00 0.0000000000000000e+00 0.0000000000000000e+00  1.0345504040106415e+00 0.0000000000000000e+00 0.0000000000000000e+00  1.0504957208543046e+00 0.0000000000000000e+00 0.0000000000000000e+00  1.0588278823648427e+00 0.0000000000000000e+00 0.0000000000000000e+00  1.0664311650582017e+00 0.0000000000000000e+00 0.0000000000000000e+00  1.0742204848736219e+00 0.0000000000000000e+00 0.0000000000000000e+00  1.0800949107347364e+00 0.0000000000000000e+00 0.0000000000000000e+00  1.0847152738960431e+00 0.0000000000000000e+00 0.0000000000000000e+00  1.0882862816400165e+00 0.0000000000000000e+00 0.0000000000000000e+00  1.0886921600080497e+00 0.0000000000000000e+00 0.0000000000000000e+00  1.0878232661684419e+00 0.0000000000000000e+00 0.0000000000000000e+00  1.0852902124639991e+00 0.0000000000000000e+00 0.0000000000000000e+00  1.0823069670765220e+00 0.0000000000000000e+00 0.0000000000000000e+00  1.0782178855161768e+00 0.0000000000000000e+00 0.0000000000000000e+00  1.0757273833474503e+00 0.0000000000000000e+00 0.0000000000000000e+00  1.0740554781753913e+00 0.0000000000000000e+00 0.0000000000000000e+00  1.0732413431376746e+00 0.0000000000000000e+00 0.0000000000000000e+00  1.0735312001864581e+00 0.0000000000000000e+00 0.0000000000000000e+00  1.0738204434615355e+00 0.0000000000000000e+00 0.0000000000000000e+00  1.0735044226760473e+00 0.0000000000000000e+00 0.0000000000000000e+00  1.0714879666504527e+00 0.0000000000000000e+00 0.0000000000000000e+00  1.0674011911650110e+00 0.0000000000000000e+00 0.0000000000000000e+00  1.0627296419541450e+00 0.0000000000000000e+00 0.0000000000000000e+00  1.0572643960965558e+00 0.0000000000000000e+00 0.0000000000000000e+00  1.0501910864016242e+00 0.0000000000000000e+00 0.0000000000000000e+00  1.0446787097720811e+00 0.0000000000000000e+00 0.0000000000000000e+00  1.0405287624071351e+00 0.0000000000000000e+00 0.0000000000000000e+00  1.0386014791274920e+00 0.0000000000000000e+00 0.0000000000000000e+00  1.0396583060612994e+00 0.0000000000000000e+00 0.0000000000000000e+00  1.0426949474391403e+00 0.0000000000000000e+00 0.0000000000000000e+00  1.0474616413855169e+00 0.0000000000000000e+00 0.0000000000000000e+00  1.0534083471008826e+00 0.0000000000000000e+00 0.0000000000000000e+00  1.0579671279018070e+00 0.0000000000000000e+00 0.0000000000000000e+00  1.0608493241124712e+00 0.0000000000000000e+00 0.0000000000000000e+00  1.0628921282685848e+00 0.0000000000000000e+00 0.0000000000000000e+00  1.0614297587049710e+00 0.0000000000000000e+00 0.0000000000000000e+00  1.0577757596046156e+00 0.0000000000000000e+00 0.0000000000000000e+00  1.0538792562002521e+00 0.0000000000000000e+00 0.0000000000000000e+00  1.0491129852748944e+00 0.0000000000000000e+00 0.0000000000000000e+00  1.0451412961368196e+00 0.0000000000000000e+00 0.0000000000000000e+00  1.0444592244712192e+00 0.0000000000000000e+00 0.0000000000000000e+00  1.0448882602348404e+00 0.0000000000000000e+00 0.0000000000000000e+00  1.0472901694115695e+00 0.0000000000000000e+00 0.0000000000000000e+00  1.0520182573526937e+00 0.0000000000000000e+00 0.0000000000000000e+00  1.0566351566579977e+00 0.0000000000000000e+00 0.0000000000000000e+00  1.0607639996215492e+00 0.0000000000000000e+00 0.0000000000000000e+00  1.0641877418002628e+00 0.0000000000000000e+00 0.0000000000000000e+00  1.0647037032059699e+00 0.0000000000000000e+00 0.0000000000000000e+00  1.0627508546279205e+00 0.0000000000000000e+00 0.0000000000000000e+00  1.0615374777221260e+00 0.0000000000000000e+00 0.0000000000000000e+00  1.0574859321627514e+00 0.0000000000000000e+00 0.0000000000000000e+00  1.0518410670680993e+00 0.0000000000000000e+00 0.0000000000000000e+00  1.0484505896665166e+00 0.0000000000000000e+00 0.0000000000000000e+00  1.0483642775008253e+00 0.0000000000000000e+00 0.0000000000000000e+00  1.0493557829643390e+00 0.0000000000000000e+00 0.0000000000000000e+00  1.0564750516053671e+00 0.0000000000000000e+00 0.0000000000000000e+00  1.0598830909325998e+00 0.0000000000000000e+00 0.0000000000000000e+00  1.0625920620923133e+00 0.0000000000000000e+00 0.0000000000000000e+00  1.0647468564670544e+00 0.0000000000000000e+00 0.0000000000000000e+00  1.0648238784580459e+00 0.0000000000000000e+00 0.0000000000000000e+00  1.0627608079777053e+00 0.0000000000000000e+00 0.0000000000000000e+00  1.0592777811252636e+00 0.0000000000000000e+00 0.0000000000000000e+00  1.0558979322190554e+00 0.0000000000000000e+00 0.0000000000000000e+00  1.0530700773855928e+00 0.0000000000000000e+00 0.0000000000000000e+00  1.0513940851435200e+00 0.0000000000000000e+00 0.0000000000000000e+00  1.0521104452615841e+00 0.0000000000000000e+00 0.0000000000000000e+00  1.0547121921582925e+00 0.0000000000000000e+00 0.0000000000000000e+00  1.0583563619068532e+00 0.0000000000000000e+00 0.0000000000000000e+00  1.0631167599491611e+00 0.0000000000000000e+00 0.0000000000000000e+00  1.0673583178214914e+00 0.0000000000000000e+00 0.0000000000000000e+00  1.0709428043948794e+00 0.0000000000000000e+00 0.0000000000000000e+00  1.0718354862565669e+00 0.0000000000000000e+00 0.0000000000000000e+00  1.0716961907236184e+00 0.0000000000000000e+00 0.0000000000000000e+00  1.0701061360779389e+00 0.0000000000000000e+00 0.0000000000000000e+00  1.0689168180419584e+00 0.0000000000000000e+00 0.0000000000000000e+00  1.0677355839428282e+00 0.0000000000000000e+00 0.0000000000000000e+00  1.0688283817599138e+00 0.0000000000000000e+00 0.0000000000000000e+00  1.0711830884210192e+00 0.0000000000000000e+00 0.0000000000000000e+00  1.0762956706560114e+00 -6.3687544725387173e-03 0.0000000000000000e+00  1.0741595851143786e+00 -1.3616865278825148e-02 0.0000000000000000e+00  1.0693865597097194e+00 -2.2442093564898062e-02 0.0000000000000000e+00  1.0581191330789510e+00 -3.3527701637092178e-02 0.0000000000000000e+00  1.0395612674650174e+00 -4.9771183662067446e-02 0.0000000000000000e+00  1.0114566677999701e+00 -7.1776441833090746e-02 0.0000000000000000e+00  9.7563888941488319e-01 -1.1132164857365261e-01 0.0000000000000000e+00  9.2792798233607721e-01 -1.5576998658805163e-01 0.0000000000000000e+00  8.6103319202883088e-01 -1.9476303540371376e-01 0.0000000000000000e+00  7.8906499051205048e-01 -2.2164972835015601e-01 0.0000000000000000e+00  7.3605472723911658e-01 -2.3565365485781936e-01 0.0000000000000000e+00  7.2482463470736114e-01 -2.4059434916463182e-01 0.0000000000000000e+00  7.6932444588710380e-01 -2.3700316228790208e-01 0.0000000000000000e+00  8.6874754799062970e-01 -2.2099547500915961e-01 0.0000000000000000e+00  9.9355261131305650e-01 -1.8520924808413694e-01 0.0000000000000000e+00  1.0978126129931158e+00 -1.3340447168758759e-01 0.0000000000000000e+00  1.1496285943086821e+00 -8.5541949732672803e-02 0.0000000000000000e+00  1.1560171023444388e+00 -4.5550646779557828e-02 0.0000000000000000e+00  1.1362300467185720e+00 -2.3461622571336858e-02 0.0000000000000000e+00  1.1145864495937159e+00 -9.5796784624699940e-03 0.0000000000000000e+00  1.1004659628447575e+00 -3.2378846699865058e-03 0.0000000000000000e+00  1.0935878213342589e+00 -7.2918459864843726e-04 0.0000000000000000e+00  1.0893915693090792e+00 -1.1592277821297368e-04 0.0000000000000000e+00  1.0864651759136561e+00 0.0000000000000000e+00 0.0000000000000000e+00  1.0834933254035708e+00 0.0000000000000000e+00 0.0000000000000000e+00  1.0786507382040738e+00 0.0000000000000000e+00 0.0000000000000000e+00  1.0729884301166759e+00 0.0000000000000000e+00 0.0000000000000000e+00  1.0665778916200155e+00 0.0000000000000000e+00 0.0000000000000000e+00  1.0616531044758797e+00 0.0000000000000000e+00 0.0000000000000000e+00  1.0585716225188611e+00 0.0000000000000000e+00 0.0000000000000000e+00  1.0579104413675591e+00 0.0000000000000000e+00 0.0000000000000000e+00  1.0586398953292755e+00 0.0000000000000000e+00 0.0000000000000000e+00  1.0611368702911845e+00 0.0000000000000000e+00 0.0000000000000000e+00  1.0640825470965456e+00 0.0000000000000000e+00 0.0000000000000000e+00  1.0664867734613457e+00 0.0000000000000000e+00 0.0000000000000000e+00  1.0676545722477702e+00 0.0000000000000000e+00 0.0000000000000000e+00  1.0677652673042983e+00 0.0000000000000000e+00 0.0000000000000000e+00  1.0651893106663257e+00 0.0000000000000000e+00 0.0000000000000000e+00  1.0622805568464464e+00 0.0000000000000000e+00 0.0000000000000000e+00  1.0573860065914980e+00 0.0000000000000000e+00 0.0000000000000000e+00  1.0534028276102643e+00 0.0000000000000000e+00 0.0000000000000000e+00  1.0505404219079804e+00 0.0000000000000000e+00 0.0000000000000000e+00  1.0501147473610730e+00 0.0000000000000000e+00 0.0000000000000000e+00  1.0514333621053289e+00 0.0000000000000000e+00 0.0000000000000000e+00  1.0541833476324598e+00 0.0000000000000000e+00 0.0000000000000000e+00  1.0582157712115099e+00 0.0000000000000000e+00 0.0000000000000000e+00  1.0637293006019910e+00 0.0000000000000000e+00 0.0000000000000000e+00  1.0644618051687103e+00 0.0000000000000000e+00 0.0000000000000000e+00  1.0621303009913323e+00 0.0000000000000000e+00 0.0000000000000000e+00  1.0595732879476452e+00 0.0000000000000000e+00 0.0000000000000000e+00  1.0568196269145378e+00 0.0000000000000000e+00 0.0000000000000000e+00  1.0528979490176702e+00 0.0000000000000000e+00 0.0000000000000000e+00  1.0479001417107892e+00 0.0000000000000000e+00 0.0000000000000000e+00  1.0468382692059874e+00 0.0000000000000000e+00 0.0000000000000000e+00  1.0476390625932370e+00 0.0000000000000000e+00 0.0000000000000000e+00  1.0494842493741638e+00 0.0000000000000000e+00 0.0000000000000000e+00  1.0533068756383464e+00 0.0000000000000000e+00 0.0000000000000000e+00  1.0576431268562052e+00 0.0000000000000000e+00 0.0000000000000000e+00  1.0607355365882278e+00 0.0000000000000000e+00 0.0000000000000000e+00  1.0630360702065071e+00 0.0000000000000000e+00 0.0000000000000000e+00  1.0629469878455982e+00 0.0000000000000000e+00 0.0000000000000000e+00  1.0597229831487001e+00 0.0000000000000000e+00 0.0000000000000000e+00  1.0558250444185091e+00 0.0000000000000000e+00 0.0000000000000000e+00  1.0508626126182530e+00 0.0000000000000000e+00 0.0000000000000000e+00  1.0450718052491568e+00 0.0000000000000000e+00 0.0000000000000000e+00  1.0415417376296672e+00 0.0000000000000000e+00 0.0000000000000000e+00  1.0398265824378627e+00 0.0000000000000000e+00 0.0000000000000000e+00  1.0393989754917388e+00 0.0000000000000000e+00 0.0000000000000000e+00  1.0427496389276327e+00 0.0000000000000000e+00 0.0000000000000000e+00  1.0476544655211506e+00 0.0000000000000000e+00 0.0000000000000000e+00  1.0526215634539868e+00 0.0000000000000000e+00 0.0000000000000000e+00  1.0576435962840531e+00 0.0000000000000000e+00 0.0000000000000000e+00  1.0614384887458814e+00 0.0000000000000000e+00 0.0000000000000000e+00  1.0627305040213737e+00 0.0000000000000000e+00 0.0000000000000000e+00  1.0621581199590249e+00 0.0000000000000000e+00 0.0000000000000000e+00  1.0595583550088097e+00 0.0000000000000000e+00 0.0000000000000000e+00  1.0555805094635931e+00 0.0000000000000000e+00 0.0000000000000000e+00  1.0522426573205630e+00 0.0000000000000000e+00 0.0000000000000000e+00  1.0488211355089503e+00 0.0000000000000000e+00 0.0000000000000000e+00  1.0476564376516908e+00 0.0000000000000000e+00 0.0000000000000000e+00  1.0496396689144774e+00 0.0000000000000000e+00 0.0000000000000000e+00  1.0538797425298299e+00 0.0000000000000000e+00 0.0000000000000000e+00  1.0595676509960288e+00 0.0000000000000000e+00 0.0000000000000000e+00  1.0661979919088300e+00 0.0000000000000000e+00 0.0000000000000000e+00  1.0736825771522562e+00 0.0000000000000000e+00 0.0000000000000000e+00  1.0816370000920634e+00 0.0000000000000000e+00 0.0000000000000000e+00  1.0878785943234228e+00 0.0000000000000000e+00 0.0000000000000000e+00  1.0923820992218027e+00 0.0000000000000000e+00 0.0000000000000000e+00  1.0965708021064287e+00 0.0000000000000000e+00 0.0000000000000000e+00  1.0972053207190373e+00 0.0000000000000000e+00 0.0000000000000000e+00  1.0969216081912603e+00 0.0000000000000000e+00 0.0000000000000000e+00  1.0945303244726072e+00 0.0000000000000000e+00 0.0000000000000000e+00  1.0899679458568665e+00 0.0000000000000000e+00 0.0000000000000000e+00  1.0841894297485650e+00 0.0000000000000000e+00 0.0000000000000000e+00  1.0776257053401683e+00 0.0000000000000000e+00 0.0000000000000000e+00  1.0703101437105944e+00 0.0000000000000000e+00 0.0000000000000000e+00  1.0618159686222595e+00 0.0000000000000000e+00 0.0000000000000000e+00  1.0541893912508691e+00 0.0000000000000000e+00 0.0000000000000000e+00  1.0460483009447861e+00 0.0000000000000000e+00 0.0000000000000000e+00  1.0309291929207236e+00 0.0000000000000000e+00 0.0000000000000000e+00  1.0244977819954710e+00 0.0000000000000000e+00 0.0000000000000000e+00  1.0194191988336565e+00 0.0000000000000000e+00 0.0000000000000000e+00  1.0148644092996930e+00 0.0000000000000000e+00 0.0000000000000000e+00  1.0111542165493672e+00 0.0000000000000000e+00 0.0000000000000000e+00  1.0082451321335000e+00 0.0000000000000000e+00 0.0000000000000000e+00  1.0060773166958070e+00 0.0000000000000000e+00 0.0000000000000000e+00  1.0040022547515424e+00 0.0000000000000000e+00 0.0000000000000000e+00  1.0026425651205801e+00 0.0000000000000000e+00 0.0000000000000000e+00  1.0017758591403068e+00 0.0000000000000000e+00 0.0000000000000000e+00  1.0007755929737288e+00 0.0000000000000000e+00 0.0000000000000000e+00  1.0007974183275770e+00 0.0000000000000000e+00 0.0000000000000000e+00  9.9991586029060653e-01 0.0000000000000000e+00 0.0000000000000000e+00  1.0000413248221312e+00 0.0000000000000000e+00 0.0000000000000000e+00  9.9973491439298134e-01 0.0000000000000000e+00 0.0000000000000000e+00  1.0004809414184357e+00 0.0000000000000000e+00 0.0000000000000000e+00  1.0002555212401585e+00 0.0000000000000000e+00 0.0000000000000000e+00  9.9980017028410306e-01 0.0000000000000000e+00 0.0000000000000000e+00  1.0000001301795256e+00 0.0000000000000000e+00 0.0000000000000000e+00  1.0000001301795256e+00 0.0000000000000000e+00 0.0000000000000000e+00  1.0000001301795256e+00 0.0000000000000000e+00 0.0000000000000000e+00  1.0000001301795256e+00 0.0000000000000000e+00 0.0000000000000000e+00  1.0000001301795256e+00 0.0000000000000000e+00 0.0000000000000000e+00  1.0000001301795256e+00 0.0000000000000000e+00 0.0000000000000000e+00  1.0000001301795256e+00 0.0000000000000000e+00 0.0000000000000000e+00  1.0000001301795256e+00 0.0000000000000000e+00 0.0000000000000000e+00  1.0000001301795256e+00 0.0000000000000000e+00 0.0000000000000000e+00  1.0000001301795256e+00 0.0000000000000000e+00 0.0000000000000000e+00  1.0000001301795256e+00 0.0000000000000000e+00 0.0000000000000000e+00  1.0000001301795256e+00 0.0000000000000000e+00 0.0000000000000000e+00  1.0000001301795256e+00 0.0000000000000000e+00 0.0000000000000000e+00  1.0000001301795256e+00 0.0000000000000000e+00 0.0000000000000000e+00  1.0000001301795256e+00 0.0000000000000000e+00 0.0000000000000000e+00  1.0000001301795256e+00 0.0000000000000000e+00 0.0000000000000000e+00  1.0000001301795256e+00 0.0000000000000000e+00 0.0000000000000000e+00  1.0000001301795256e+00 0.0000000000000000e+00 0.0000000000000000e+00  1.0000001301795256e+00 0.0000000000000000e+00 0.0000000000000000e+00  1.0000001301795256e+00 0.0000000000000000e+00 0.0000000000000000e+00  1.0419810860111012e+00 -9.4006795750575245e-03 0.0000000000000000e+00  1.0391946931175171e+00 -1.9043058893459339e-02 0.0000000000000000e+00  1.0372810417691705e+00 -2.9581349154039083e-02 0.0000000000000000e+00  1.0319309805073469e+00 -4.0802695973411324e-02 0.0000000000000000e+00  1.0265953213417407e+00 -5.6223683182746703e-02 0.0000000000000000e+00  1.0312481228677988e+00 -5.9535813728514984e-02 0.0000000000000000e+00  1.0355313566682016e+00 -6.2882028639156692e-02 0.0000000000000000e+00  1.0408464716402981e+00 -6.5881702287524532e-02 0.0000000000000000e+00  1.0464373808196259e+00 -6.8676528201561809e-02 0.0000000000000000e+00  1.0526621541068133e+00 -7.0996753587379210e-02 0.0000000000000000e+00  1.0594641971112728e+00 -7.2888205870260389e-02 0.0000000000000000e+00  1.0667095913858466e+00 -7.4040022300781189e-02 0.0000000000000000e+00  1.0744470943885769e+00 -7.4557221943796104e-02 0.0000000000000000e+00  1.0822864953646574e+00 -7.4092819168660992e-02 0.0000000000000000e+00  1.0904114535837683e+00 -7.2871922946032230e-02 0.0000000000000000e+00  1.0985216803677895e+00 -7.0762061716695329e-02 0.0000000000000000e+00  1.1066374025142012e+00 -6.7462647761027492e-02 0.0000000000000000e+00  1.1142831395470054e+00 -6.3100661771257810e-02 0.0000000000000000e+00  1.1215141357958480e+00 -5.7900640361977743e-02 0.0000000000000000e+00  1.1281534897236376e+00 -5.1761107292664782e-02 0.0000000000000000e+00  1.1339324426839386e+00 -4.4723265493573069e-02 0.0000000000000000e+00  1.1388425856106643e+00 -3.6975837062968975e-02 0.0000000000000000e+00  1.1427024480375374e+00 -2.8658708042404862e-02 0.0000000000000000e+00  1.1454879383107495e+00 -1.9686685911798750e-02 0.0000000000000000e+00  1.1470934637292451e+00 -1.0623868517532402e-02 0.0000000000000000e+00  1.1474833456250442e+00 -1.1985928930639230e-03 0.0000000000000000e+00  1.1464282288939347e+00 8.3053235010307844e-03 0.0000000000000000e+00  1.1442577724053518e+00 1.7530792444228012e-02 0.0000000000000000e+00  1.1406201040761572e+00 2.6341041527057754e-02 0.0000000000000000e+00  1.1357681173904530e+00 3.4618313281302417e-02 0.0000000000000000e+00  1.1296764323314430e+00 4.2141977269940858e-02 0.0000000000000000e+00  1.1224573581303567e+00 4.8558778034768546e-02 0.0000000000000000e+00  1.1142884533949862e+00 5.3936871864581001e-02 0.0000000000000000e+00  1.1052944312877850e+00 5.8095156390112597e-02 0.0000000000000000e+00  1.0957947746687333e+00 6.0715242857478438e-02 0.0000000000000000e+00  1.0859173465593033e+00 6.183