<?xml version="1.0"?>
<VTKFile type="UnstructuredGrid"  version="0.1"  >
<UnstructuredGrid>
<Piece  NumberOfPoints="10199" NumberOfCells="20110">
<Points>
<DataArray  type="Float64"  NumberOfComponents="3"  format="ascii">0 -5 0  8 -5 0  30 -5 0  40 -5 0  40 5 0  30 5 0  8 5 0  0 5 0  8 -2.5 0  15 -2.5 0  30 -2.5 0  30 2.5 0  15 2.5 0  8 2.5 0  10 0.5 0  10 -0.5 0  0 0 0  0.4210526315780956 -5 0  0.8421052631563433 -5 0  1.263157894734281 -5 0  1.684210526311999 -5 0  2.105263157889717 -5 0  2.526315789467435 -5 0  2.947368421045153 -5 0  3.368421052622872 -5 0  3.78947368420059 -5 0  4.210526315779479 -5 0  4.631578947359537 -5 0  5.052631578939595 -5 0  5.473684210519653 -5 0  5.89473684209971 -5 0  6.315789473679768 -5 0  6.736842105259826 -5 0  7.157894736839884 -5 0  7.578947368419942 -5 0  8.407407407405314 -5 0  8.814814814810628 -5 0  9.222222222215942 -5 0  9.629629629621256 -5 0  10.03703703702657 -5 0  10.44444444443188 -5 0  10.8518518518372 -5 0  11.25925925924251 -5 0  11.66666666664783 -5 0  12.07407407405314 -5 0  12.48148148145846 -5 0  12.88888888886377 -5 0  13.29629629626908 -5 0  13.7037037036744 -5 0  14.11111111107971 -5 0  14.51851851848502 -5 0  14.92592592589034 -5 0  15.33333333329565 -5 0  15.74074074070096 -5 0  16.14814814810754 -5 0  16.55555555551614 -5 0  16.96296296292474 -5 0  17.37037037033335 -5 0  17.77777777774195 -5 0  18.18518518515056 -5 0  18.59259259255916 -5 0  18.99999999996776 -5 0  19.40740740737636 -5 0  19.81481481478497 -5 0  20.22222222219357 -5 0  20.62962962960217 -5 0  21.03703703701077 -5 0  21.44444444441937 -5 0  21.85185185182797 -5 0  22.25925925923657 -5 0  22.66666666664518 -5 0  23.07407407405378 -5 0  23.48148148146238 -5 0  23.88888888887098 -5 0  24.29629629627958 -5 0  24.70370370368818 -5 0  25.11111111109678 -5 0  25.51851851850539 -5 0  25.92592592591399 -5 0  26.33333333332259 -5 0  26.74074074073119 -5 0  27.14814814813979 -5 0  27.55555555554839 -5 0  27.96296296295699 -5 0  28.3703703703656 -5 0  28.7777777777742 -5 0  29.1851851851828 -5 0  29.5925925925914 -5 0  30.41666666667852 -5 0  30.83333333335704 -5 0  31.25000000003556 -5 0  31.66666666671408 -5 0  32.08333333338936 -5 0  32.50000000005308 -5 0  32.9166666667168 -5 0  33.33333333338052 -5 0  33.75000000004424 -5 0  34.16666666670795 -5 0  34.58333333337167 -5 0  35.00000000003539 -5 0  35.41666666669911 -5 0  35.83333333336282 -5 0  36.25000000002654 -5 0  36.66666666669026 -5 0  37.08333333335398 -5 0  37.50000000001769 -5 0  37.91666666668141 -5 0  38.33333333334513 -5 0  38.75000000000885 -5 0  39.16666666667257 -5 0  39.58333333333628 -5 0  40 -4.583333333332821 0  40 -4.166666666665642 0  40 -3.74999999999855 0  40 -3.333333333333135 0  40 -2.916666666667806 0  40 -2.500000000002478 0  40 -2.083333333337148 0  40 -1.666666666671818 0  40 -1.250000000006488 0  40 -0.8333333333405228 0  40 -0.4166666666733416 0  40 -6.163070054299169e-12 0  40 0.4166666666610173 0  40 0.8333333333281976 0  40 1.249999999995378 0  40 1.666666666662558 0  40 2.083333333329739 0  40 2.499999999996919 0  40 2.916666666664099 0  40 3.33333333333128 0  40 3.74999999999846 0  40 4.166666666665641 0  40 4.583333333332821 0  39.58333333333628 5 0  39.16666666667256 5 0  38.75000000000885 5 0  38.33333333334513 5 0  37.91666666668141 5 0  37.50000000001769 5 0  37.08333333335398 5 0  36.66666666669025 5 0  36.25000000002654 5 0  35.83333333336282 5 0  35.41666666669911 5 0  35.00000000003539 5 0  34.58333333337167 5 0  34.16666666670795 5 0  33.75000000004424 5 0  33.33333333338052 5 0  32.9166666667168 5 0  32.50000000005308 5 0  32.08333333338936 5 0  31.66666666671408 5 0  31.25000000003556 5 0  30.83333333335704 5 0  30.41666666667852 5 0  29.59259259259259 5 0  29.18518518518519 5 0  28.77777777777778 5 0  28.37037037037037 5 0  27.96296296296296 5 0  27.55555555555556 5 0  27.14814814814815 5 0  26.74074074074074 5 0  26.33333333333333 5 0  25.92592592592593 5 0  25.51851851851852 5 0  25.11111111111111 5 0  24.7037037037037 5 0  24.2962962962963 5 0  23.88888888888889 5 0  23.48148148148148 5 0  23.07407407407408 5 0  22.66666666666667 5 0  22.25925925925926 5 0  21.85185185185185 5 0  21.44444444444445 5 0  21.03703703703704 5 0  20.62962962962963 5 0  20.22222222222222 5 0  19.81481481481482 5 0  19.40740740740741 5 0  19 5 0  18.5925925925926 5 0  18.18518518518519 5 0  17.77777777777778 5 0  17.37037037037037 5 0  16.96296296296296 5 0  16.55555555555556 5 0  16.14814814814815 5 0  15.74074074074074 5 0  15.33333333333333 5 0  14.92592592592593 5 0  14.51851851851852 5 0  14.11111111111111 5 0  13.70370370370371 5 0  13.2962962962963 5 0  12.88888888888889 5 0  12.48148148148148 5 0  12.07407407407408 5 0  11.66666666666667 5 0  11.25925925925926 5 0  10.85185185185185 5 0  10.44444444444445 5 0  10.03703703703704 5 0  9.629629629629633 5 0  9.222222222222221 5 0  8.814814814814817 5 0  8.407407407407408 5 0  7.5789473684193 5 0  7.157894736838599 5 0  6.73684210526082 5 0  6.315789473684795 5 0  5.894736842108769 5 0  5.473684210532742 5 0  5.052631578956715 5 0  4.631578947380689 5 0  4.210526315804662 5 0  3.789473684226299 5 0  3.368421052645599 5 0  2.947368421064898 5 0  2.526315789484198 5 0  2.105263157903499 5 0  1.6842105263228 5 0  1.2631578947421 5 0  0.8421052631613994 5 0  0.4210526315806993 5 0  0 4.545454545454545 0  0 4.09090909090909 0  0 3.636363636363634 0  0 3.18181818181818 0  0 2.727272727272726 0  0 2.272727272727271 0  0 1.818181818181817 0  0 1.363636363636363 0  0 0.9090909090909092 0  0 0.454545454545455 0  0 -0.4545454545450807 0  0 -0.9090909090895867 0  0 -1.363636363633713 0  0 -1.818181818177841 0  0 -2.272727272723127 0  0 -2.727272727269273 0  0 -3.181818181815419 0  0 -3.636363636361564 0  0 -4.090909090907709 0  0 -4.545454545453855 0  8 -4.499999999999999 0  8 -3.999999999999999 0  8 -3.499999999999999 0  8 -3 0  8.137254901963859 -2.5 0  8.274509803926303 -2.5 0  8.411764705886863 -2.5 0  8.549019607849138 -2.5 0  8.686274509809513 -2.5 0  8.82352941176989 -2.5 0  8.960784313730265 -2.5 0  9.098039215690642 -2.5 0  9.235294117651017 -2.5 0  9.372549019611395 -2.5 0  9.50980392157177 -2.5 0  9.647058823532147 -2.5 0  9.784313725492522 -2.5 0  9.921568627452897 -2.5 0  10.05882352941327 -2.5 0  10.19607843137365 -2.5 0  10.33333333333402 -2.5 0  10.4705882352944 -2.5 0  10.60784313725478 -2.5 0  10.74509803921515 -2.5 0  10.88235294117553 -2.5 0  11.0196078431359 -2.5 0  11.15686274509628 -2.5 0  11.29411764705665 -2.5 0  11.43137254901703 -2.5 0  11.56862745097915 -2.5 0  11.70588235294301 -2.5 0  11.84313725490686 -2.5 0  11.98039215687072 -2.5 0  12.11764705883209 -2.5 0  12.25490196079247 -2.5 0  12.39215686275285 -2.5 0  12.52941176471322 -2.5 0  12.6666666666736 -2.5 0  12.80392156863397 -2.5 0  12.94117647059435 -2.5 0  13.07843137255473 -2.5 0  13.2156862745151 -2.5 0  13.35294117647548 -2.5 0  13.49019607843586 -2.5 0  13.62745098039623 -2.5 0  13.76470588235661 -2.5 0  13.90196078431699 -2.5 0  14.03921568627736 -2.5 0  14.17647058823774 -2.5 0  14.31372549019812 -2.5 0  14.45098039215849 -2.5 0  14.58823529411887 -2.5 0  14.72549019607925 -2.5 0  14.86274509803962 -2.5 0  15.20270270270254 -2.5 0  15.40540540540509 -2.5 0  15.60810810810763 -2.5 0  15.81081081081017 -2.5 0  16.01351351351227 -2.5 0  16.21621621621265 -2.5 0  16.41891891891279 -2.5 0  16.62162162161294 -2.5 0  16.82432432431308 -2.5 0  17.02702702701322 -2.5 0  17.22972972971337 -2.5 0  17.43243243241351 -2.5 0  17.63513513511365 -2.5 0  17.83783783781379 -2.5 0  18.04054054051394 -2.5 0  18.24324324321408 -2.5 0  18.44594594591422 -2.5 0  18.64864864861436 -2.5 0  18.85135135131451 -2.5 0  19.05405405401465 -2.5 0  19.25675675671479 -2.5 0  19.45945945941494 -2.5 0  19.66216216211508 -2.5 0  19.86486486481522 -2.5 0  20.06756756751536 -2.5 0  20.27027027021551 -2.5 0  20.47297297291565 -2.5 0  20.6756756756158 -2.5 0  20.87837837831594 -2.5 0  21.08108108101608 -2.5 0  21.28378378371622 -2.5 0  21.48648648641637 -2.5 0  21.68918918911651 -2.5 0  21.89189189181666 -2.5 0  22.0945945945168 -2.5 0  22.29729729721694 -2.5 0  22.49999999991778 -2.5 0  22.70270270262203 -2.5 0  22.90540540532697 -2.5 0  23.10810810803191 -2.5 0  23.31081081073686 -2.5 0  23.5135135134418 -2.5 0  23.71621621614674 -2.5 0  23.91891891885169 -2.5 0  24.12162162155663 -2.5 0  24.32432432426158 -2.5 0  24.52702702696652 -2.5 0  24.72972972967146 -2.5 0  24.93243243237641 -2.5 0  25.13513513508135 -2.5 0  25.3378378377863 -2.5 0  25.54054054049124 -2.5 0  25.74324324319618 -2.5 0  25.94594594590112 -2.5 0  26.14864864860607 -2.5 0  26.35135135131101 -2.5 0  26.55405405401596 -2.5 0  26.7567567567209 -2.5 0  26.95945945942584 -2.5 0  27.16216216213079 -2.5 0  27.36486486483573 -2.5 0  27.56756756754068 -2.5 0  27.77027027024562 -2.5 0  27.97297297295056 -2.5 0  28.1756756756555 -2.5 0  28.37837837836045 -2.5 0  28.5810810810654 -2.5 0  28.78378378377034 -2.5 0  28.98648648647528 -2.5 0  29.18918918918023 -2.5 0  29.39189189188517 -2.5 0  29.59459459459011 -2.5 0  29.79729729729506 -2.5 0  30 -3.000000000000001 0  30 -3.500000000000001 0  30 -4.000000000000001 0  30 -4.5 0  8 4.499999999999999 0  8 3.999999999999999 0  8 3.499999999999999 0  8 3 0  8.137254901963859 2.5 0  8.274509803926303 2.5 0  8.411764705886863 2.5 0  8.549019607849138 2.5 0  8.686274509809513 2.5 0  8.82352941176989 2.5 0  8.960784313730265 2.5 0  9.098039215690642 2.5 0  9.235294117651017 2.5 0  9.372549019611395 2.5 0  9.50980392157177 2.5 0  9.647058823532147 2.5 0  9.784313725492522 2.5 0  9.921568627452897 2.5 0  10.05882352941327 2.5 0  10.19607843137365 2.5 0  10.33333333333402 2.5 0  10.4705882352944 2.5 0  10.60784313725478 2.5 0  10.74509803921515 2.5 0  10.88235294117553 2.5 0  11.0196078431359 2.5 0  11.15686274509628 2.5 0  11.29411764705665 2.5 0  11.43137254901703 2.5 0  11.56862745097915 2.5 0  11.70588235294301 2.5 0  11.84313725490686 2.5 0  11.98039215687072 2.5 0  12.11764705883209 2.5 0  12.25490196079247 2.5 0  1
[...]
<PointData  Vectors="f_17"> 
<DataArray  type="Float64"  Name="f_17"  NumberOfComponents="3" format="ascii">1.0000001379844257e+00 0.0000000000000000e+00 0.0000000000000000e+00  1.0506792395470312e+00 0.0000000000000000e+00 0.0000000000000000e+00  1.0307629625397321e+00 0.0000000000000000e+00 0.0000000000000000e+00  1.0083143098918799e+00 0.0000000000000000e+00 0.0000000000000000e+00  1.0081127401640828e+00 0.0000000000000000e+00 0.0000000000000000e+00  1.0328251046992312e+00 0.0000000000000000e+00 0.0000000000000000e+00  1.0502509554489043e+00 0.0000000000000000e+00 0.0000000000000000e+00  1.0000001379844257e+00 0.0000000000000000e+00 0.0000000000000000e+00  1.0219607908121746e+00 -6.1610048828098840e-02 0.0000000000000000e+00  1.1516708254011845e+00 5.3175338293436250e-02 0.0000000000000000e+00  1.0354719720678875e+00 4.2512834857600483e-03 0.0000000000000000e+00  1.0399934818866554e+00 -1.3075171788282556e-02 0.0000000000000000e+00  1.1802499249779301e+00 -1.1651725750690893e-02 0.0000000000000000e+00  1.0219782683667462e+00 6.1710833704992384e-02 0.0000000000000000e+00  0.0000000000000000e+00 0.0000000000000000e+00 0.0000000000000000e+00  0.0000000000000000e+00 0.0000000000000000e+00 0.0000000000000000e+00  1.0000001379844257e+00 0.0000000000000000e+00 0.0000000000000000e+00  9.9932061341718448e-01 0.0000000000000000e+00 0.0000000000000000e+00  9.9879693757923860e-01 0.0000000000000000e+00 0.0000000000000000e+00  1.0008413708913890e+00 0.0000000000000000e+00 0.0000000000000000e+00  1.0007034375842907e+00 0.0000000000000000e+00 0.0000000000000000e+00  1.0016995429488966e+00 0.0000000000000000e+00 0.0000000000000000e+00  1.0020695337465497e+00 0.0000000000000000e+00 0.0000000000000000e+00  1.0024330935134182e+00 0.0000000000000000e+00 0.0000000000000000e+00  1.0033461739371434e+00 0.0000000000000000e+00 0.0000000000000000e+00  1.0046926593638541e+00 0.0000000000000000e+00 0.0000000000000000e+00  1.0060042557175963e+00 0.0000000000000000e+00 0.0000000000000000e+00  1.0077179194871937e+00 0.0000000000000000e+00 0.0000000000000000e+00  1.0102592505966776e+00 0.0000000000000000e+00 0.0000000000000000e+00  1.0130231146492574e+00 0.0000000000000000e+00 0.0000000000000000e+00  1.0175125600010018e+00 0.0000000000000000e+00 0.0000000000000000e+00  1.0200025227032812e+00 0.0000000000000000e+00 0.0000000000000000e+00  1.0255650232704501e+00 0.0000000000000000e+00 0.0000000000000000e+00  1.0335283896945200e+00 0.0000000000000000e+00 0.0000000000000000e+00  1.0405412766614095e+00 0.0000000000000000e+00 0.0000000000000000e+00  1.0612858892897565e+00 0.0000000000000000e+00 0.0000000000000000e+00  1.0729059004707946e+00 0.0000000000000000e+00 0.0000000000000000e+00  1.0846628989613107e+00 0.0000000000000000e+00 0.0000000000000000e+00  1.0976998750766427e+00 0.0000000000000000e+00 0.0000000000000000e+00  1.1097914345554776e+00 0.0000000000000000e+00 0.0000000000000000e+00  1.1218287276622039e+00 0.0000000000000000e+00 0.0000000000000000e+00  1.1337397792263191e+00 0.0000000000000000e+00 0.0000000000000000e+00  1.1430843847290078e+00 0.0000000000000000e+00 0.0000000000000000e+00  1.1514964694597607e+00 0.0000000000000000e+00 0.0000000000000000e+00  1.1577513584043309e+00 0.0000000000000000e+00 0.0000000000000000e+00  1.1623757071424661e+00 0.0000000000000000e+00 0.0000000000000000e+00  1.1639742948115688e+00 0.0000000000000000e+00 0.0000000000000000e+00  1.1647004561348624e+00 0.0000000000000000e+00 0.0000000000000000e+00  1.1631302134673924e+00 0.0000000000000000e+00 0.0000000000000000e+00  1.1601773486263041e+00 0.0000000000000000e+00 0.0000000000000000e+00  1.1565082558307682e+00 0.0000000000000000e+00 0.0000000000000000e+00  1.1519288668297183e+00 0.0000000000000000e+00 0.0000000000000000e+00  1.1473067856381560e+00 0.0000000000000000e+00 0.0000000000000000e+00  1.1422640361214855e+00 0.0000000000000000e+00 0.0000000000000000e+00  1.1374508646225379e+00 0.0000000000000000e+00 0.0000000000000000e+00  1.1340513467405937e+00 0.0000000000000000e+00 0.0000000000000000e+00  1.1316478646386534e+00 0.0000000000000000e+00 0.0000000000000000e+00  1.1279310065036472e+00 0.0000000000000000e+00 0.0000000000000000e+00  1.1251417020175176e+00 0.0000000000000000e+00 0.0000000000000000e+00  1.1216282895182539e+00 0.0000000000000000e+00 0.0000000000000000e+00  1.1174436880273566e+00 0.0000000000000000e+00 0.0000000000000000e+00  1.1129527996357649e+00 0.0000000000000000e+00 0.0000000000000000e+00  1.1072668597805158e+00 0.0000000000000000e+00 0.0000000000000000e+00  1.1011665134924422e+00 0.0000000000000000e+00 0.0000000000000000e+00  1.0952385021911768e+00 0.0000000000000000e+00 0.0000000000000000e+00  1.0886412425767724e+00 0.0000000000000000e+00 0.0000000000000000e+00  1.0823922620668966e+00 0.0000000000000000e+00 0.0000000000000000e+00  1.0783605648738159e+00 0.0000000000000000e+00 0.0000000000000000e+00  1.0741329629591871e+00 0.0000000000000000e+00 0.0000000000000000e+00  1.0705845770937119e+00 0.0000000000000000e+00 0.0000000000000000e+00  1.0688523041218456e+00 0.0000000000000000e+00 0.0000000000000000e+00  1.0667921194734089e+00 0.0000000000000000e+00 0.0000000000000000e+00  1.0649133767817187e+00 0.0000000000000000e+00 0.0000000000000000e+00  1.0646084831205032e+00 0.0000000000000000e+00 0.0000000000000000e+00  1.0631926604229285e+00 0.0000000000000000e+00 0.0000000000000000e+00  1.0613389117932612e+00 0.0000000000000000e+00 0.0000000000000000e+00  1.0598643976054358e+00 0.0000000000000000e+00 0.0000000000000000e+00  1.0572757745935972e+00 0.0000000000000000e+00 0.0000000000000000e+00  1.0543199209157379e+00 0.0000000000000000e+00 0.0000000000000000e+00  1.0517898785859954e+00 0.0000000000000000e+00 0.0000000000000000e+00  1.0482813350133291e+00 0.0000000000000000e+00 0.0000000000000000e+00  1.0445532591892059e+00 0.0000000000000000e+00 0.0000000000000000e+00  1.0434524279882236e+00 0.0000000000000000e+00 0.0000000000000000e+00  1.0406024740406619e+00 0.0000000000000000e+00 0.0000000000000000e+00  1.0364506133184679e+00 0.0000000000000000e+00 0.0000000000000000e+00  1.0337434480644345e+00 0.0000000000000000e+00 0.0000000000000000e+00  1.0329443450693059e+00 0.0000000000000000e+00 0.0000000000000000e+00  1.0315189909198936e+00 0.0000000000000000e+00 0.0000000000000000e+00  1.0298198556594720e+00 0.0000000000000000e+00 0.0000000000000000e+00  1.0282009751568220e+00 0.0000000000000000e+00 0.0000000000000000e+00  1.0266297902587005e+00 0.0000000000000000e+00 0.0000000000000000e+00  1.0259144969364182e+00 0.0000000000000000e+00 0.0000000000000000e+00  1.0251899786344607e+00 0.0000000000000000e+00 0.0000000000000000e+00  1.0240095985089051e+00 0.0000000000000000e+00 0.0000000000000000e+00  1.0228609251865506e+00 0.0000000000000000e+00 0.0000000000000000e+00  1.0219589861097995e+00 0.0000000000000000e+00 0.0000000000000000e+00  1.0210715634337757e+00 0.0000000000000000e+00 0.0000000000000000e+00  1.0197199587432013e+00 0.0000000000000000e+00 0.0000000000000000e+00  1.0188851828945131e+00 0.0000000000000000e+00 0.0000000000000000e+00  1.0178498177061950e+00 0.0000000000000000e+00 0.0000000000000000e+00  1.0165626790782616e+00 0.0000000000000000e+00 0.0000000000000000e+00  1.0157816405958151e+00 0.0000000000000000e+00 0.0000000000000000e+00  1.0149310691677231e+00 0.0000000000000000e+00 0.0000000000000000e+00  1.0146017716085829e+00 0.0000000000000000e+00 0.0000000000000000e+00  1.0133501621159715e+00 0.0000000000000000e+00 0.0000000000000000e+00  1.0126596721781278e+00 0.0000000000000000e+00 0.0000000000000000e+00  1.0116713038860687e+00 0.0000000000000000e+00 0.0000000000000000e+00  1.0113702598295766e+00 0.0000000000000000e+00 0.0000000000000000e+00  1.0104145393405695e+00 0.0000000000000000e+00 0.0000000000000000e+00  1.0100267995570023e+00 0.0000000000000000e+00 0.0000000000000000e+00  1.0087523761410895e+00 0.0000000000000000e+00 0.0000000000000000e+00  1.0090063252275623e+00 8.2820419410130168e-04 0.0000000000000000e+00  1.0104081525357467e+00 1.5312250352629093e-03 0.0000000000000000e+00  1.0125459846660851e+00 2.2998267347029934e-03 0.0000000000000000e+00  1.0133767948829546e+00 3.1499422109919285e-03 0.0000000000000000e+00  1.0146355949359116e+00 3.9144729401927730e-03 0.0000000000000000e+00  1.0144478891742454e+00 4.8020280192707836e-03 0.0000000000000000e+00  1.0132675817382411e+00 5.6880832367893911e-03 0.0000000000000000e+00  1.0096036774996382e+00 6.4836807240276906e-03 0.0000000000000000e+00  9.9847850444829434e-01 6.8229060271522667e-03 0.0000000000000000e+00  9.7792073643985966e-01 6.1531695792238165e-03 0.0000000000000000e+00  9.5539094906039590e-01 2.9256590595469201e-03 0.0000000000000000e+00  9.4482848570494926e-01 -1.0157726647121519e-03 0.0000000000000000e+00  9.5475965485181924e-01 -5.1401342093842844e-03 0.0000000000000000e+00  9.7732762632557657e-01 -7.2652366634150508e-03 0.0000000000000000e+00  9.9821046436672722e-01 -7.2545950267690089e-03 0.0000000000000000e+00  1.0095767770531860e+00 -6.5117381942651608e-03 0.0000000000000000e+00  1.0124660049395655e+00 -6.2285127915786389e-03 0.0000000000000000e+00  1.0129659217897415e+00 -5.2506169099230844e-03 0.0000000000000000e+00  1.0122706658501144e+00 -4.2153455628234646e-03 0.0000000000000000e+00  1.0120856370773901e+00 -3.3291454202390288e-03 0.0000000000000000e+00  1.0108168472196328e+00 -2.4233795774169058e-03 0.0000000000000000e+00  1.0101061913374987e+00 -1.6032734189850464e-03 0.0000000000000000e+00  1.0089130519997420e+00 -8.5545308641091656e-04 0.0000000000000000e+00  1.0087070871867159e+00 0.0000000000000000e+00 0.0000000000000000e+00  1.0094639120909799e+00 0.0000000000000000e+00 0.0000000000000000e+00  1.0102119369641618e+00 0.0000000000000000e+00 0.0000000000000000e+00  1.0112621180127392e+00 0.0000000000000000e+00 0.0000000000000000e+00  1.0116813982857960e+00 0.0000000000000000e+00 0.0000000000000000e+00  1.0125874383056372e+00 0.0000000000000000e+00 0.0000000000000000e+00  1.0136665423920188e+00 0.0000000000000000e+00 0.0000000000000000e+00  1.0148628089765701e+00 0.0000000000000000e+00 0.0000000000000000e+00  1.0153737254891679e+00 0.0000000000000000e+00 0.0000000000000000e+00  1.0161863979477233e+00 0.0000000000000000e+00 0.0000000000000000e+00  1.0168598199745933e+00 0.0000000000000000e+00 0.0000000000000000e+00  1.0174137723136036e+00 0.0000000000000000e+00 0.0000000000000000e+00  1.0180425999863740e+00 0.0000000000000000e+00 0.0000000000000000e+00  1.0194115953933549e+00 0.0000000000000000e+00 0.0000000000000000e+00  1.0200427976493285e+00 0.0000000000000000e+00 0.0000000000000000e+00  1.0216919069825690e+00 0.0000000000000000e+00 0.0000000000000000e+00  1.0221424800232921e+00 0.0000000000000000e+00 0.0000000000000000e+00  1.0232510722291344e+00 0.0000000000000000e+00 0.0000000000000000e+00  1.0242278719502576e+00 0.0000000000000000e+00 0.0000000000000000e+00  1.0259405406629845e+00 0.0000000000000000e+00 0.0000000000000000e+00  1.0275460622236472e+00 0.0000000000000000e+00 0.0000000000000000e+00  1.0289197164460122e+00 0.0000000000000000e+00 0.0000000000000000e+00  1.0309539749492425e+00 0.0000000000000000e+00 0.0000000000000000e+00  1.0339807353546417e+00 0.0000000000000000e+00 0.0000000000000000e+00  1.0358222645682580e+00 0.0000000000000000e+00 0.0000000000000000e+00  1.0365062028479943e+00 0.0000000000000000e+00 0.0000000000000000e+00  1.0385817008925466e+00 0.0000000000000000e+00 0.0000000000000000e+00  1.0413580272942025e+00 0.0000000000000000e+00 0.0000000000000000e+00  1.0428294354935173e+00 0.0000000000000000e+00 0.0000000000000000e+00  1.0423629499020193e+00 0.0000000000000000e+00 0.0000000000000000e+00  1.0441452552296524e+00 0.0000000000000000e+00 0.0000000000000000e+00  1.0459538242113466e+00 0.0000000000000000e+00 0.0000000000000000e+00  1.0472172124273427e+00 0.0000000000000000e+00 0.0000000000000000e+00  1.0495030444944740e+00 0.0000000000000000e+00 0.0000000000000000e+00  1.0523053994543481e+00 0.0000000000000000e+00 0.0000000000000000e+00  1.0549770619109284e+00 0.0000000000000000e+00 0.0000000000000000e+00  1.0589627037937017e+00 0.0000000000000000e+00 0.0000000000000000e+00  1.0633256086488934e+00 0.0000000000000000e+00 0.0000000000000000e+00  1.0671357421155439e+00 0.0000000000000000e+00 0.0000000000000000e+00  1.0723201842104129e+00 0.0000000000000000e+00 0.0000000000000000e+00  1.0772373714930579e+00 0.0000000000000000e+00 0.0000000000000000e+00  1.0808914903812641e+00 0.0000000000000000e+00 0.0000000000000000e+00  1.0848691224356715e+00 0.0000000000000000e+00 0.0000000000000000e+00  1.0879767485466108e+00 0.0000000000000000e+00 0.0000000000000000e+00  1.0892669930717231e+00 0.0000000000000000e+00 0.0000000000000000e+00  1.0916117958097056e+00 0.0000000000000000e+00 0.0000000000000000e+00  1.0935164282428129e+00 0.0000000000000000e+00 0.0000000000000000e+00  1.0948348376576866e+00 0.0000000000000000e+00 0.0000000000000000e+00  1.0971841949376364e+00 0.0000000000000000e+00 0.0000000000000000e+00  1.1002925854753403e+00 0.0000000000000000e+00 0.0000000000000000e+00  1.1043391896814980e+00 0.0000000000000000e+00 0.0000000000000000e+00  1.1096410207301317e+00 0.0000000000000000e+00 0.0000000000000000e+00  1.1161916615467979e+00 0.0000000000000000e+00 0.0000000000000000e+00  1.1228064945239378e+00 0.0000000000000000e+00 0.0000000000000000e+00  1.1307724297750112e+00 0.0000000000000000e+00 0.0000000000000000e+00  1.1369775437142784e+00 0.0000000000000000e+00 0.0000000000000000e+00  1.1432732274749027e+00 0.0000000000000000e+00 0.0000000000000000e+00  1.1493801554062730e+00 0.0000000000000000e+00 0.0000000000000000e+00  1.1544583194063407e+00 0.0000000000000000e+00 0.0000000000000000e+00  1.1577936645418641e+00 0.0000000000000000e+00 0.0000000000000000e+00  1.1598111112796479e+00 0.0000000000000000e+00 0.0000000000000000e+00  1.1612365894014547e+00 0.0000000000000000e+00 0.0000000000000000e+00  1.1625769149679890e+00 0.0000000000000000e+00 0.0000000000000000e+00  1.1623628337889471e+00 0.0000000000000000e+00 0.0000000000000000e+00  1.1606106634942146e+00 0.0000000000000000e+00 0.0000000000000000e+00  1.1590522928567808e+00 0.0000000000000000e+00 0.0000000000000000e+00  1.1542916518376660e+00 0.0000000000000000e+00 0.0000000000000000e+00  1.1487808904132817e+00 0.0000000000000000e+00 0.0000000000000000e+00  1.1411385800000153e+00 0.0000000000000000e+00 0.0000000000000000e+00  1.1313749642412281e+00 0.0000000000000000e+00 0.0000000000000000e+00  1.1203734374211234e+00 0.0000000000000000e+00 0.0000000000000000e+00  1.1086801141554312e+00 0.0000000000000000e+00 0.0000000000000000e+00  1.0966170360898551e+00 0.0000000000000000e+00 0.0000000000000000e+00  1.0836363034311836e+00 0.0000000000000000e+00 0.0000000000000000e+00  1.0722163625040049e+00 0.0000000000000000e+00 0.0000000000000000e+00  1.0607324497662360e+00 0.0000000000000000e+00 0.0000000000000000e+00  1.0403782836621929e+00 0.0000000000000000e+00 0.0000000000000000e+00  1.0320346046136171e+00 0.0000000000000000e+00 0.0000000000000000e+00  1.0255450432744084e+00 0.0000000000000000e+00 0.0000000000000000e+00  1.0197373285540761e+00 0.0000000000000000e+00 0.0000000000000000e+00  1.0151477083791214e+00 0.0000000000000000e+00 0.0000000000000000e+00  1.0115207313777237e+00 0.0000000000000000e+00 0.0000000000000000e+00  1.0087307907514986e+00 0.0000000000000000e+00 0.0000000000000000e+00  1.0061449192057463e+00 0.0000000000000000e+00 0.0000000000000000e+00  1.0043458202191162e+00 0.0000000000000000e+00 0.0000000000000000e+00  1.0030894458009525e+00 0.0000000000000000e+00 0.0000000000000000e+00  1.0017256224480753e+00 0.0000000000000000e+00 0.0000000000000000e+00  1.0014590862280777e+00 0.0000000000000000e+00 0.0000000000000000e+00  1.0003349095706493e+00 0.0000000000000000e+00 0.0000000000000000e+00  1.0002639638629660e+00 0.0000000000000000e+00 0.0000000000000000e+00  9.9983162000358550e-01 0.0000000000000000e+00 0.0000000000000000e+00  1.0005025214578900e+00 0.0000000000000000e+00 0.0000000000000000e+00  1.0002540356526921e+00 0.0000000000000000e+00 0.0000000000000000e+00  9.9979418812679721e-01 0.0000000000000000e+00 0.0000000000000000e+00  1.0000001379844257e+00 0.0000000000000000e+00 0.0000000000000000e+00  1.0000001379844257e+00 0.0000000000000000e+00 0.0000000000000000e+00  1.0000001379844257e+00 0.0000000000000000e+00 0.0000000000000000e+00  1.0000001379844257e+00 0.0000000000000000e+00 0.0000000000000000e+00  1.0000001379844257e+00 0.0000000000000000e+00 0.0000000000000000e+00  1.0000001379844257e+00 0.0000000000000000e+00 0.0000000000000000e+00  1.0000001379844257e+00 0.0000000000000000e+00 0.0000000000000000e+00  1.0000001379844257e+00 0.0000000000000000e+00 0.0000000000000000e+00  1.0000001379844257e+00 0.0000000000000000e+00 0.0000000000000000e+00  1.0000001379844257e+00 0.0000000000000000e+00 0.0000000000000000e+00  1.0000001379844257e+00 0.0000000000000000e+00 0.0000000000000000e+00  1.0000001379844257e+00 0.0000000000000000e+00 0.0000000000000000e+00  1.0000001379844257e+00 0.0000000000000000e+00 0.0000000000000000e+00  1.0000001379844257e+00 0.0000000000000000e+00 0.0000000000000000e+00  1.0000001379844257e+00 0.0000000000000000e+00 0.0000000000000000e+00  1.0000001379844257e+00 0.0000000000000000e+00 0.0000000000000000e+00  1.0000001379844257e+00 0.0000000000000000e+00 0.0000000000000000e+00  1.0000001379844257e+00 0.0000000000000000e+00 0.0000000000000000e+00  1.0000001379844257e+00 0.0000000000000000e+00 0.0000000000000000e+00  1.0000001379844257e+00 0.0000000000000000e+00 0.0000000000000000e+00  1.0497438639759378e+00 -1.2254463231420779e-02 0.0000000000000000e+00  1.0456299662073165e+00 -2.4478012323366938e-02 0.0000000000000000e+00  1.0415456322166496e+00 -3.6939385145575446e-02 0.0000000000000000e+00  1.0333802662851457e+00 -4.9547081447531040e-02 0.0000000000000000e+00  1.0247202147101975e+00 -6.6286718792713153e-02 0.0000000000000000e+00  1.0293520819851196e+00 -7.0633216016172104e-02 0.0000000000000000e+00  1.0335658769614886e+00 -7.5133220528018005e-02 0.0000000000000000e+00  1.0388547182777761e+00 -7.9414402311595744e-02 0.0000000000000000e+00  1.0444402279056950e+00 -8.3633553008849365e-02 0.0000000000000000e+00  1.0506915405988342e+00 -8.7546678121758259e-02 0.0000000000000000e+00  1.0575674447423149e+00 -9.1200484581999433e-02 0.0000000000000000e+00  1.0649636655505919e+00 -9.4295664555335112e-02 0.0000000000000000e+00  1.0729108012756807e+00 -9.6980726971642728e-02 0.0000000000000000e+00  1.0810847285280143e+00 -9.8902873752886686e-02 0.0000000000000000e+00  1.0896610200979504e+00 -1.0029755286763788e-01 0.0000000000000000e+00  1.0984076064590131e+00 -1.0101963103550449e-01 0.0000000000000000e+00  1.1073198859728490e+00 -1.0083104344916879e-01 0.0000000000000000e+00  1.1160080548319524e+00 -9.9862533069575321e-02 0.0000000000000000e+00  1.1245756992631160e+00 -9.8284426281864817e-02 0.0000000000000000e+00  1.1328688497846997e+00 -9.6025246405581285e-02 0.0000000000000000e+00  1.1406903798044776e+00 -9.3115486355167032e-02 0.0000000000000000e+00  1.1480988176107076e+00 -8.9720046725190961e-02 0.0000000000000000e+00  1.1549633178615950e+00 -8.5928896443781058e-02 0.0000000000000000e+00  1.1613475988485149e+00 -8.1691556095719750e-02 0.0000000000000000e+00  1.1672017091446227e+00 -7.7371985970954363e-02 0.0000000000000000e+00  1.1725612671906653e+00 -7.2764317211803473e-02 0.0000000000000000e+00  1.1773349427503279e+00 -6.8003100668506525e-02 0.0000000000000000e+00  1.1817717726779449e+00 -6.3249793256513628e-02 0.0000000000000000e+00  1.1856847204958911e+00 -5.8498994290009980e-02 0.0000000000000000e+00  1.1892426493128085e+00 -5.3744755507137823e-02 0.0000000000000000e+00  1.1924163259246408e+00 -4.8998890228156462e-02 0.0000000000000000e+00  1.1952672426986992e+00 -4.4324797408981660e-02 0.0000000000000000e+00  1.1978457409439154e+00 -3.9594782272799924e-02 0.0000000000000000e+00  1.2001507611271645e+00 -3.4835276897529431e-02 0.0000000000000000e+00  1.2022029248936161e+00 -3.0068865280812013e-02 0.0000000000000000e+00  1.2040000329156688e+00 -2.524394