<?xml version="1.0"?>
<VTKFile type="UnstructuredGrid"  version="0.1"  >
<UnstructuredGrid>
<Piece  NumberOfPoints="10199" NumberOfCells="20110">
<Points>
<DataArray  type="Float64"  NumberOfComponents="3"  format="ascii">0 -5 0  8 -5 0  30 -5 0  40 -5 0  40 5 0  30 5 0  8 5 0  0 5 0  8 -2.5 0  15 -2.5 0  30 -2.5 0  30 2.5 0  15 2.5 0  8 2.5 0  10 0.5 0  10 -0.5 0  0 0 0  0.4210526315780956 -5 0  0.8421052631563433 -5 0  1.263157894734281 -5 0  1.684210526311999 -5 0  2.105263157889717 -5 0  2.526315789467435 -5 0  2.947368421045153 -5 0  3.368421052622872 -5 0  3.78947368420059 -5 0  4.210526315779479 -5 0  4.631578947359537 -5 0  5.052631578939595 -5 0  5.473684210519653 -5 0  5.89473684209971 -5 0  6.315789473679768 -5 0  6.736842105259826 -5 0  7.157894736839884 -5 0  7.578947368419942 -5 0  8.407407407405314 -5 0  8.814814814810628 -5 0  9.222222222215942 -5 0  9.629629629621256 -5 0  10.03703703702657 -5 0  10.44444444443188 -5 0  10.8518518518372 -5 0  11.25925925924251 -5 0  11.66666666664783 -5 0  12.07407407405314 -5 0  12.48148148145846 -5 0  12.88888888886377 -5 0  13.29629629626908 -5 0  13.7037037036744 -5 0  14.11111111107971 -5 0  14.51851851848502 -5 0  14.92592592589034 -5 0  15.33333333329565 -5 0  15.74074074070096 -5 0  16.14814814810754 -5 0  16.55555555551614 -5 0  16.96296296292474 -5 0  17.37037037033335 -5 0  17.77777777774195 -5 0  18.18518518515056 -5 0  18.59259259255916 -5 0  18.99999999996776 -5 0  19.40740740737636 -5 0  19.81481481478497 -5 0  20.22222222219357 -5 0  20.62962962960217 -5 0  21.03703703701077 -5 0  21.44444444441937 -5 0  21.85185185182797 -5 0  22.25925925923657 -5 0  22.66666666664518 -5 0  23.07407407405378 -5 0  23.48148148146238 -5 0  23.88888888887098 -5 0  24.29629629627958 -5 0  24.70370370368818 -5 0  25.11111111109678 -5 0  25.51851851850539 -5 0  25.92592592591399 -5 0  26.33333333332259 -5 0  26.74074074073119 -5 0  27.14814814813979 -5 0  27.55555555554839 -5 0  27.96296296295699 -5 0  28.3703703703656 -5 0  28.7777777777742 -5 0  29.1851851851828 -5 0  29.5925925925914 -5 0  30.41666666667852 -5 0  30.83333333335704 -5 0  31.25000000003556 -5 0  31.66666666671408 -5 0  32.08333333338936 -5 0  32.50000000005308 -5 0  32.9166666667168 -5 0  33.33333333338052 -5 0  33.75000000004424 -5 0  34.16666666670795 -5 0  34.58333333337167 -5 0  35.00000000003539 -5 0  35.41666666669911 -5 0  35.83333333336282 -5 0  36.25000000002654 -5 0  36.66666666669026 -5 0  37.08333333335398 -5 0  37.50000000001769 -5 0  37.91666666668141 -5 0  38.33333333334513 -5 0  38.75000000000885 -5 0  39.16666666667257 -5 0  39.58333333333628 -5 0  40 -4.583333333332821 0  40 -4.166666666665642 0  40 -3.74999999999855 0  40 -3.333333333333135 0  40 -2.916666666667806 0  40 -2.500000000002478 0  40 -2.083333333337148 0  40 -1.666666666671818 0  40 -1.250000000006488 0  40 -0.8333333333405228 0  40 -0.4166666666733416 0  40 -6.163070054299169e-12 0  40 0.4166666666610173 0  40 0.8333333333281976 0  40 1.249999999995378 0  40 1.666666666662558 0  40 2.083333333329739 0  40 2.499999999996919 0  40 2.916666666664099 0  40 3.33333333333128 0  40 3.74999999999846 0  40 4.166666666665641 0  40 4.583333333332821 0  39.58333333333628 5 0  39.16666666667256 5 0  38.75000000000885 5 0  38.33333333334513 5 0  37.91666666668141 5 0  37.50000000001769 5 0  37.08333333335398 5 0  36.66666666669025 5 0  36.25000000002654 5 0  35.83333333336282 5 0  35.41666666669911 5 0  35.00000000003539 5 0  34.58333333337167 5 0  34.16666666670795 5 0  33.75000000004424 5 0  33.33333333338052 5 0  32.9166666667168 5 0  32.50000000005308 5 0  32.08333333338936 5 0  31.66666666671408 5 0  31.25000000003556 5 0  30.83333333335704 5 0  30.41666666667852 5 0  29.59259259259259 5 0  29.18518518518519 5 0  28.77777777777778 5 0  28.37037037037037 5 0  27.96296296296296 5 0  27.55555555555556 5 0  27.14814814814815 5 0  26.74074074074074 5 0  26.33333333333333 5 0  25.92592592592593 5 0  25.51851851851852 5 0  25.11111111111111 5 0  24.7037037037037 5 0  24.2962962962963 5 0  23.88888888888889 5 0  23.48148148148148 5 0  23.07407407407408 5 0  22.66666666666667 5 0  22.25925925925926 5 0  21.85185185185185 5 0  21.44444444444445 5 0  21.03703703703704 5 0  20.62962962962963 5 0  20.22222222222222 5 0  19.81481481481482 5 0  19.40740740740741 5 0  19 5 0  18.5925925925926 5 0  18.18518518518519 5 0  17.77777777777778 5 0  17.37037037037037 5 0  16.96296296296296 5 0  16.55555555555556 5 0  16.14814814814815 5 0  15.74074074074074 5 0  15.33333333333333 5 0  14.92592592592593 5 0  14.51851851851852 5 0  14.11111111111111 5 0  13.70370370370371 5 0  13.2962962962963 5 0  12.88888888888889 5 0  12.48148148148148 5 0  12.07407407407408 5 0  11.66666666666667 5 0  11.25925925925926 5 0  10.85185185185185 5 0  10.44444444444445 5 0  10.03703703703704 5 0  9.629629629629633 5 0  9.222222222222221 5 0  8.814814814814817 5 0  8.407407407407408 5 0  7.5789473684193 5 0  7.157894736838599 5 0  6.73684210526082 5 0  6.315789473684795 5 0  5.894736842108769 5 0  5.473684210532742 5 0  5.052631578956715 5 0  4.631578947380689 5 0  4.210526315804662 5 0  3.789473684226299 5 0  3.368421052645599 5 0  2.947368421064898 5 0  2.526315789484198 5 0  2.105263157903499 5 0  1.6842105263228 5 0  1.2631578947421 5 0  0.8421052631613994 5 0  0.4210526315806993 5 0  0 4.545454545454545 0  0 4.09090909090909 0  0 3.636363636363634 0  0 3.18181818181818 0  0 2.727272727272726 0  0 2.272727272727271 0  0 1.818181818181817 0  0 1.363636363636363 0  0 0.9090909090909092 0  0 0.454545454545455 0  0 -0.4545454545450807 0  0 -0.9090909090895867 0  0 -1.363636363633713 0  0 -1.818181818177841 0  0 -2.272727272723127 0  0 -2.727272727269273 0  0 -3.181818181815419 0  0 -3.636363636361564 0  0 -4.090909090907709 0  0 -4.545454545453855 0  8 -4.499999999999999 0  8 -3.999999999999999 0  8 -3.499999999999999 0  8 -3 0  8.137254901963859 -2.5 0  8.274509803926303 -2.5 0  8.411764705886863 -2.5 0  8.549019607849138 -2.5 0  8.686274509809513 -2.5 0  8.82352941176989 -2.5 0  8.960784313730265 -2.5 0  9.098039215690642 -2.5 0  9.235294117651017 -2.5 0  9.372549019611395 -2.5 0  9.50980392157177 -2.5 0  9.647058823532147 -2.5 0  9.784313725492522 -2.5 0  9.921568627452897 -2.5 0  10.05882352941327 -2.5 0  10.19607843137365 -2.5 0  10.33333333333402 -2.5 0  10.4705882352944 -2.5 0  10.60784313725478 -2.5 0  10.74509803921515 -2.5 0  10.88235294117553 -2.5 0  11.0196078431359 -2.5 0  11.15686274509628 -2.5 0  11.29411764705665 -2.5 0  11.43137254901703 -2.5 0  11.56862745097915 -2.5 0  11.70588235294301 -2.5 0  11.84313725490686 -2.5 0  11.98039215687072 -2.5 0  12.11764705883209 -2.5 0  12.25490196079247 -2.5 0  12.39215686275285 -2.5 0  12.52941176471322 -2.5 0  12.6666666666736 -2.5 0  12.80392156863397 -2.5 0  12.94117647059435 -2.5 0  13.07843137255473 -2.5 0  13.2156862745151 -2.5 0  13.35294117647548 -2.5 0  13.49019607843586 -2.5 0  13.62745098039623 -2.5 0  13.76470588235661 -2.5 0  13.90196078431699 -2.5 0  14.03921568627736 -2.5 0  14.17647058823774 -2.5 0  14.31372549019812 -2.5 0  14.45098039215849 -2.5 0  14.58823529411887 -2.5 0  14.72549019607925 -2.5 0  14.86274509803962 -2.5 0  15.20270270270254 -2.5 0  15.40540540540509 -2.5 0  15.60810810810763 -2.5 0  15.81081081081017 -2.5 0  16.01351351351227 -2.5 0  16.21621621621265 -2.5 0  16.41891891891279 -2.5 0  16.62162162161294 -2.5 0  16.82432432431308 -2.5 0  17.02702702701322 -2.5 0  17.22972972971337 -2.5 0  17.43243243241351 -2.5 0  17.63513513511365 -2.5 0  17.83783783781379 -2.5 0  18.04054054051394 -2.5 0  18.24324324321408 -2.5 0  18.44594594591422 -2.5 0  18.64864864861436 -2.5 0  18.85135135131451 -2.5 0  19.05405405401465 -2.5 0  19.25675675671479 -2.5 0  19.45945945941494 -2.5 0  19.66216216211508 -2.5 0  19.86486486481522 -2.5 0  20.06756756751536 -2.5 0  20.27027027021551 -2.5 0  20.47297297291565 -2.5 0  20.6756756756158 -2.5 0  20.87837837831594 -2.5 0  21.08108108101608 -2.5 0  21.28378378371622 -2.5 0  21.48648648641637 -2.5 0  21.68918918911651 -2.5 0  21.89189189181666 -2.5 0  22.0945945945168 -2.5 0  22.29729729721694 -2.5 0  22.49999999991778 -2.5 0  22.70270270262203 -2.5 0  22.90540540532697 -2.5 0  23.10810810803191 -2.5 0  23.31081081073686 -2.5 0  23.5135135134418 -2.5 0  23.71621621614674 -2.5 0  23.91891891885169 -2.5 0  24.12162162155663 -2.5 0  24.32432432426158 -2.5 0  24.52702702696652 -2.5 0  24.72972972967146 -2.5 0  24.93243243237641 -2.5 0  25.13513513508135 -2.5 0  25.3378378377863 -2.5 0  25.54054054049124 -2.5 0  25.74324324319618 -2.5 0  25.94594594590112 -2.5 0  26.14864864860607 -2.5 0  26.35135135131101 -2.5 0  26.55405405401596 -2.5 0  26.7567567567209 -2.5 0  26.95945945942584 -2.5 0  27.16216216213079 -2.5 0  27.36486486483573 -2.5 0  27.56756756754068 -2.5 0  27.77027027024562 -2.5 0  27.97297297295056 -2.5 0  28.1756756756555 -2.5 0  28.37837837836045 -2.5 0  28.5810810810654 -2.5 0  28.78378378377034 -2.5 0  28.98648648647528 -2.5 0  29.18918918918023 -2.5 0  29.39189189188517 -2.5 0  29.59459459459011 -2.5 0  29.79729729729506 -2.5 0  30 -3.000000000000001 0  30 -3.500000000000001 0  30 -4.000000000000001 0  30 -4.5 0  8 4.499999999999999 0  8 3.999999999999999 0  8 3.499999999999999 0  8 3 0  8.137254901963859 2.5 0  8.274509803926303 2.5 0  8.411764705886863 2.5 0  8.549019607849138 2.5 0  8.686274509809513 2.5 0  8.82352941176989 2.5 0  8.960784313730265 2.5 0  9.098039215690642 2.5 0  9.235294117651017 2.5 0  9.372549019611395 2.5 0  9.50980392157177 2.5 0  9.647058823532147 2.5 0  9.784313725492522 2.5 0  9.921568627452897 2.5 0  10.05882352941327 2.5 0  10.19607843137365 2.5 0  10.33333333333402 2.5 0  10.4705882352944 2.5 0  10.60784313725478 2.5 0  10.74509803921515 2.5 0  10.88235294117553 2.5 0  11.0196078431359 2.5 0  11.15686274509628 2.5 0  11.29411764705665 2.5 0  11.43137254901703 2.5 0  11.56862745097915 2.5 0  11.70588235294301 2.5 0  11.84313725490686 2.5 0  11.98039215687072 2.5 0  12.11764705883209 2.5 0  12.25490196079247 2.5 0  1
[...]
<PointData  Vectors="f_17"> 
<DataArray  type="Float64"  Name="f_17"  NumberOfComponents="3" format="ascii">1.0000001313584799e+00 0.0000000000000000e+00 0.0000000000000000e+00  1.0391840276868585e+00 0.0000000000000000e+00 0.0000000000000000e+00  1.0633979040063013e+00 0.0000000000000000e+00 0.0000000000000000e+00  1.0897119478647355e+00 0.0000000000000000e+00 0.0000000000000000e+00  1.0749244980288954e+00 0.0000000000000000e+00 0.0000000000000000e+00  1.0510916186289883e+00 0.0000000000000000e+00 0.0000000000000000e+00  1.0416649370125746e+00 0.0000000000000000e+00 0.0000000000000000e+00  1.0000001313584799e+00 0.0000000000000000e+00 0.0000000000000000e+00  1.0201979070044658e+00 -4.9132013890537500e-02 0.0000000000000000e+00  1.0340450460188313e+00 8.6522958750742410e-02 0.0000000000000000e+00  1.1043952180920802e+00 5.9413826151707975e-02 0.0000000000000000e+00  1.0163382954214450e+00 6.2271557823762494e-02 0.0000000000000000e+00  1.0860737042962927e+00 5.9251042655117422e-02 0.0000000000000000e+00  1.0225907745410623e+00 5.2451755614921422e-02 0.0000000000000000e+00  0.0000000000000000e+00 0.0000000000000000e+00 0.0000000000000000e+00  0.0000000000000000e+00 0.0000000000000000e+00 0.0000000000000000e+00  1.0000001313584799e+00 0.0000000000000000e+00 0.0000000000000000e+00  9.9930472159550043e-01 0.0000000000000000e+00 0.0000000000000000e+00  9.9878117973963998e-01 0.0000000000000000e+00 0.0000000000000000e+00  1.0008513089850752e+00 0.0000000000000000e+00 0.0000000000000000e+00  1.0006575977749763e+00 0.0000000000000000e+00 0.0000000000000000e+00  1.0015786053828246e+00 0.0000000000000000e+00 0.0000000000000000e+00  1.0018061760535930e+00 0.0000000000000000e+00 0.0000000000000000e+00  1.0019616939436953e+00 0.0000000000000000e+00 0.0000000000000000e+00  1.0026140797118142e+00 0.0000000000000000e+00 0.0000000000000000e+00  1.0036516746792943e+00 0.0000000000000000e+00 0.0000000000000000e+00  1.0045883640894300e+00 0.0000000000000000e+00 0.0000000000000000e+00  1.0058839793199712e+00 0.0000000000000000e+00 0.0000000000000000e+00  1.0079516580340659e+00 0.0000000000000000e+00 0.0000000000000000e+00  1.0101459740079552e+00 0.0000000000000000e+00 0.0000000000000000e+00  1.0139319311593604e+00 0.0000000000000000e+00 0.0000000000000000e+00  1.0154919194212644e+00 0.0000000000000000e+00 0.0000000000000000e+00  1.0198555813904655e+00 0.0000000000000000e+00 0.0000000000000000e+00  1.0263736197877849e+00 0.0000000000000000e+00 0.0000000000000000e+00  1.0315442679569418e+00 0.0000000000000000e+00 0.0000000000000000e+00  1.0468838943019265e+00 0.0000000000000000e+00 0.0000000000000000e+00  1.0550570033876161e+00 0.0000000000000000e+00 0.0000000000000000e+00  1.0627228464281311e+00 0.0000000000000000e+00 0.0000000000000000e+00  1.0709322090597737e+00 0.0000000000000000e+00 0.0000000000000000e+00  1.0778192449775565e+00 0.0000000000000000e+00 0.0000000000000000e+00  1.0841678319092425e+00 0.0000000000000000e+00 0.0000000000000000e+00  1.0902434530614513e+00 0.0000000000000000e+00 0.0000000000000000e+00  1.0938522518118856e+00 0.0000000000000000e+00 0.0000000000000000e+00  1.0965984045654793e+00 0.0000000000000000e+00 0.0000000000000000e+00  1.0974915334974178e+00 0.0000000000000000e+00 0.0000000000000000e+00  1.0970768420941253e+00 0.0000000000000000e+00 0.0000000000000000e+00  1.0938378023086888e+00 0.0000000000000000e+00 0.0000000000000000e+00  1.0898515844809480e+00 0.0000000000000000e+00 0.0000000000000000e+00  1.0840067557331814e+00 0.0000000000000000e+00 0.0000000000000000e+00  1.0768161820633109e+00 0.0000000000000000e+00 0.0000000000000000e+00  1.0693948555545179e+00 0.0000000000000000e+00 0.0000000000000000e+00  1.0619962404843482e+00 0.0000000000000000e+00 0.0000000000000000e+00  1.0556888969062808e+00 0.0000000000000000e+00 0.0000000000000000e+00  1.0507221450446533e+00 0.0000000000000000e+00 0.0000000000000000e+00  1.0477194564310295e+00 0.0000000000000000e+00 0.0000000000000000e+00  1.0481380600666750e+00 0.0000000000000000e+00 0.0000000000000000e+00  1.0510146183065461e+00 0.0000000000000000e+00 0.0000000000000000e+00  1.0540792455832995e+00 0.0000000000000000e+00 0.0000000000000000e+00  1.0583324565942163e+00 0.0000000000000000e+00 0.0000000000000000e+00  1.0617356201954964e+00 0.0000000000000000e+00 0.0000000000000000e+00  1.0633112891781236e+00 0.0000000000000000e+00 0.0000000000000000e+00  1.0631251920138363e+00 0.0000000000000000e+00 0.0000000000000000e+00  1.0602073150620850e+00 0.0000000000000000e+00 0.0000000000000000e+00  1.0557242186283946e+00 0.0000000000000000e+00 0.0000000000000000e+00  1.0507835114581345e+00 0.0000000000000000e+00 0.0000000000000000e+00  1.0454403632211160e+00 0.0000000000000000e+00 0.0000000000000000e+00  1.0412802003339983e+00 0.0000000000000000e+00 0.0000000000000000e+00  1.0406974090300960e+00 0.0000000000000000e+00 0.0000000000000000e+00  1.0413964095656685e+00 0.0000000000000000e+00 0.0000000000000000e+00  1.0440704499403548e+00 0.0000000000000000e+00 0.0000000000000000e+00  1.0494058342119446e+00 0.0000000000000000e+00 0.0000000000000000e+00  1.0543834656006057e+00 0.0000000000000000e+00 0.0000000000000000e+00  1.0586444257426253e+00 0.0000000000000000e+00 0.0000000000000000e+00  1.0628257139020063e+00 0.0000000000000000e+00 0.0000000000000000e+00  1.0639051830712287e+00 0.0000000000000000e+00 0.0000000000000000e+00  1.0624736130588783e+00 0.0000000000000000e+00 0.0000000000000000e+00  1.0599549600163507e+00 0.0000000000000000e+00 0.0000000000000000e+00  1.0557536340836453e+00 0.0000000000000000e+00 0.0000000000000000e+00  1.0516214408079860e+00 0.0000000000000000e+00 0.0000000000000000e+00  1.0491687552745128e+00 0.0000000000000000e+00 0.0000000000000000e+00  1.0475240033976616e+00 0.0000000000000000e+00 0.0000000000000000e+00  1.0476306675180620e+00 0.0000000000000000e+00 0.0000000000000000e+00  1.0521084003014571e+00 0.0000000000000000e+00 0.0000000000000000e+00  1.0557388429713963e+00 0.0000000000000000e+00 0.0000000000000000e+00  1.0581939525985371e+00 0.0000000000000000e+00 0.0000000000000000e+00  1.0611513371577812e+00 0.0000000000000000e+00 0.0000000000000000e+00  1.0642596304877594e+00 0.0000000000000000e+00 0.0000000000000000e+00  1.0645657050386930e+00 0.0000000000000000e+00 0.0000000000000000e+00  1.0603402009767173e+00 0.0000000000000000e+00 0.0000000000000000e+00  1.0559607580424406e+00 0.0000000000000000e+00 0.0000000000000000e+00  1.0519596798904822e+00 0.0000000000000000e+00 0.0000000000000000e+00  1.0501954001141525e+00 0.0000000000000000e+00 0.0000000000000000e+00  1.0504321560596215e+00 0.0000000000000000e+00 0.0000000000000000e+00  1.0521046801376868e+00 0.0000000000000000e+00 0.0000000000000000e+00  1.0555115508260953e+00 0.0000000000000000e+00 0.0000000000000000e+00  1.0598040530670851e+00 0.0000000000000000e+00 0.0000000000000000e+00  1.0640160421262166e+00 0.0000000000000000e+00 0.0000000000000000e+00  1.0665504871589266e+00 0.0000000000000000e+00 0.0000000000000000e+00  1.0680000311465823e+00 0.0000000000000000e+00 0.0000000000000000e+00  1.0672854300203989e+00 0.0000000000000000e+00 0.0000000000000000e+00  1.0648928295868891e+00 0.0000000000000000e+00 0.0000000000000000e+00  1.0622120444568990e+00 0.0000000000000000e+00 0.0000000000000000e+00  1.0595735292057626e+00 0.0000000000000000e+00 0.0000000000000000e+00  1.0585126608326905e+00 0.0000000000000000e+00 0.0000000000000000e+00  1.0585163230345442e+00 0.0000000000000000e+00 0.0000000000000000e+00  1.0612165030786365e+00 0.0000000000000000e+00 0.0000000000000000e+00  1.0656541719103410e+00 0.0000000000000000e+00 0.0000000000000000e+00  1.0720426652260182e+00 0.0000000000000000e+00 0.0000000000000000e+00  1.0781273459551795e+00 0.0000000000000000e+00 0.0000000000000000e+00  1.0840889956160582e+00 0.0000000000000000e+00 0.0000000000000000e+00  1.0874709847936561e+00 0.0000000000000000e+00 0.0000000000000000e+00  1.0914235269494466e+00 -7.9604568434444418e-04 0.0000000000000000e+00  1.0961526284235641e+00 -1.2038824147277988e-03 0.0000000000000000e+00  1.1055334461861235e+00 -5.2520443290520955e-04 0.0000000000000000e+00  1.1214301734868617e+00 2.5659728588870111e-03 0.0000000000000000e+00  1.1477432097142675e+00 1.1675652028517142e-02 0.0000000000000000e+00  1.1711593127250104e+00 2.6897740248165377e-02 0.0000000000000000e+00  1.1671477351216490e+00 5.8369388635848792e-02 0.0000000000000000e+00  1.1136094987459555e+00 9.7186374571481160e-02 0.0000000000000000e+00  1.0058566039759704e+00 1.4318634079974149e-01 0.0000000000000000e+00  8.7304401867770642e-01 1.7875524378279534e-01 0.0000000000000000e+00  7.6551971924103290e-01 2.0302516060821976e-01 0.0000000000000000e+00  7.1561480970941982e-01 2.0739609189420466e-01 0.0000000000000000e+00  7.2901350620649863e-01 1.9740940396068798e-01 0.0000000000000000e+00  7.8097743861181823e-01 1.8574480373068630e-01 0.0000000000000000e+00  8.5179576300714210e-01 1.5956296937382930e-01 0.0000000000000000e+00  9.1626682063516629e-01 1.2272706751982553e-01 0.0000000000000000e+00  9.6463509753154641e-01 8.4416344617059047e-02 0.0000000000000000e+00  1.0033891194887203e+00 5.4584265850930673e-02 0.0000000000000000e+00  1.0333172842166432e+00 3.9099226028402455e-02 0.0000000000000000e+00  1.0541515773961725e+00 2.7192825149911653e-02 0.0000000000000000e+00  1.0657225154174754e+00 1.8523697955927013e-02 0.0000000000000000e+00  1.0722433173648238e+00 1.1475421528014652e-02 0.0000000000000000e+00  1.0746713891035315e+00 5.4010786756186696e-03 0.0000000000000000e+00  1.0705824367996384e+00 0.0000000000000000e+00 0.0000000000000000e+00  1.0686276022301724e+00 0.0000000000000000e+00 0.0000000000000000e+00  1.0685786163265893e+00 0.0000000000000000e+00 0.0000000000000000e+00  1.0701571871611306e+00 0.0000000000000000e+00 0.0000000000000000e+00  1.0714066570147587e+00 0.0000000000000000e+00 0.0000000000000000e+00  1.0724598314381397e+00 0.0000000000000000e+00 0.0000000000000000e+00  1.0724400560805645e+00 0.0000000000000000e+00 0.0000000000000000e+00  1.0707753264770490e+00 0.0000000000000000e+00 0.0000000000000000e+00  1.0668538921969883e+00 0.0000000000000000e+00 0.0000000000000000e+00  1.0622613457870900e+00 0.0000000000000000e+00 0.0000000000000000e+00  1.0575825453076375e+00 0.0000000000000000e+00 0.0000000000000000e+00  1.0536776124008240e+00 0.0000000000000000e+00 0.0000000000000000e+00  1.0516387117518189e+00 0.0000000000000000e+00 0.0000000000000000e+00  1.0523395423074848e+00 0.0000000000000000e+00 0.0000000000000000e+00  1.0542555186673568e+00 0.0000000000000000e+00 0.0000000000000000e+00  1.0582737565658835e+00 0.0000000000000000e+00 0.0000000000000000e+00  1.0613485758081984e+00 0.0000000000000000e+00 0.0000000000000000e+00  1.0641836502942112e+00 0.0000000000000000e+00 0.0000000000000000e+00  1.0651718464699238e+00 0.0000000000000000e+00 0.0000000000000000e+00  1.0648203352759158e+00 0.0000000000000000e+00 0.0000000000000000e+00  1.0624586476735938e+00 0.0000000000000000e+00 0.0000000000000000e+00  1.0583146488202908e+00 0.0000000000000000e+00 0.0000000000000000e+00  1.0545459421715286e+00 0.0000000000000000e+00 0.0000000000000000e+00  1.0484525571479022e+00 0.0000000000000000e+00 0.0000000000000000e+00  1.0483776018799504e+00 0.0000000000000000e+00 0.0000000000000000e+00  1.0491466228681072e+00 0.0000000000000000e+00 0.0000000000000000e+00  1.0529709260400788e+00 0.0000000000000000e+00 0.0000000000000000e+00  1.0584508344306263e+00 0.0000000000000000e+00 0.0000000000000000e+00  1.0623264612157910e+00 0.0000000000000000e+00 0.0000000000000000e+00  1.0631293395789105e+00 0.0000000000000000e+00 0.0000000000000000e+00  1.0641896742427175e+00 0.0000000000000000e+00 0.0000000000000000e+00  1.0628570594241695e+00 0.0000000000000000e+00 0.0000000000000000e+00  1.0588499647169232e+00 0.0000000000000000e+00 0.0000000000000000e+00  1.0544350083737408e+00 0.0000000000000000e+00 0.0000000000000000e+00  1.0499452652300350e+00 0.0000000000000000e+00 0.0000000000000000e+00  1.0457157703641751e+00 0.0000000000000000e+00 0.0000000000000000e+00  1.0440458340739245e+00 0.0000000000000000e+00 0.0000000000000000e+00  1.0444584340285978e+00 0.0000000000000000e+00 0.0000000000000000e+00  1.0459776428849445e+00 0.0000000000000000e+00 0.0000000000000000e+00  1.0503147565615245e+00 0.0000000000000000e+00 0.0000000000000000e+00  1.0551474462726311e+00 0.0000000000000000e+00 0.0000000000000000e+00  1.0586968168185804e+00 0.0000000000000000e+00 0.0000000000000000e+00  1.0615806408104431e+00 0.0000000000000000e+00 0.0000000000000000e+00  1.0620734403008094e+00 0.0000000000000000e+00 0.0000000000000000e+00  1.0590485936673726e+00 0.0000000000000000e+00 0.0000000000000000e+00  1.0553914871799528e+00 0.0000000000000000e+00 0.0000000000000000e+00  1.0504511895019499e+00 0.0000000000000000e+00 0.0000000000000000e+00  1.0445957475352583e+00 0.0000000000000000e+00 0.0000000000000000e+00  1.0403863859721727e+00 0.0000000000000000e+00 0.0000000000000000e+00  1.0381513947712737e+00 0.0000000000000000e+00 0.0000000000000000e+00  1.0380821040736177e+00 0.0000000000000000e+00 0.0000000000000000e+00  1.0408433916237303e+00 0.0000000000000000e+00 0.0000000000000000e+00  1.0457107996735502e+00 0.0000000000000000e+00 0.0000000000000000e+00  1.0514870917191537e+00 0.0000000000000000e+00 0.0000000000000000e+00  1.0583524940680629e+00 0.0000000000000000e+00 0.0000000000000000e+00  1.0633608267652628e+00 0.0000000000000000e+00 0.0000000000000000e+00  1.0673565832041547e+00 0.0000000000000000e+00 0.0000000000000000e+00  1.0704343402972665e+00 0.0000000000000000e+00 0.0000000000000000e+00  1.0716953842602219e+00 0.0000000000000000e+00 0.0000000000000000e+00  1.0713728391766990e+00 0.0000000000000000e+00 0.0000000000000000e+00  1.0703052630321976e+00 0.0000000000000000e+00 0.0000000000000000e+00  1.0701124081623758e+00 0.0000000000000000e+00 0.0000000000000000e+00  1.0717342454350682e+00 0.0000000000000000e+00 0.0000000000000000e+00  1.0738399648335966e+00 0.0000000000000000e+00 0.0000000000000000e+00  1.0768531426171071e+00 0.0000000000000000e+00 0.0000000000000000e+00  1.0818631668042311e+00 0.0000000000000000e+00 0.0000000000000000e+00  1.0850341445853513e+00 0.0000000000000000e+00 0.0000000000000000e+00  1.0881477945643163e+00 0.0000000000000000e+00 0.0000000000000000e+00  1.0893439224930419e+00 0.0000000000000000e+00 0.0000000000000000e+00  1.0879774145719838e+00 0.0000000000000000e+00 0.0000000000000000e+00  1.0846933279495634e+00 0.0000000000000000e+00 0.0000000000000000e+00  1.0798646261403406e+00 0.0000000000000000e+00 0.0000000000000000e+00  1.0735621989372985e+00 0.0000000000000000e+00 0.0000000000000000e+00  1.0654972735447199e+00 0.0000000000000000e+00 0.0000000000000000e+00  1.0579492362140412e+00 0.0000000000000000e+00 0.0000000000000000e+00  1.0496469266598167e+00 0.0000000000000000e+00 0.0000000000000000e+00  1.0339302019443193e+00 0.0000000000000000e+00 0.0000000000000000e+00  1.0272360610902775e+00 0.0000000000000000e+00 0.0000000000000000e+00  1.0219490142773100e+00 0.0000000000000000e+00 0.0000000000000000e+00  1.0172292478476510e+00 0.0000000000000000e+00 0.0000000000000000e+00  1.0133662753376138e+00 0.0000000000000000e+00 0.0000000000000000e+00  1.0103149949452441e+00 0.0000000000000000e+00 0.0000000000000000e+00  1.0079695787154574e+00 0.0000000000000000e+00 0.0000000000000000e+00  1.0056752954704746e+00 0.0000000000000000e+00 0.0000000000000000e+00  1.0040498999393543e+00 0.0000000000000000e+00 0.0000000000000000e+00  1.0028743020008557e+00 0.0000000000000000e+00 0.0000000000000000e+00  1.0015567571864232e+00 0.0000000000000000e+00 0.0000000000000000e+00  1.0012894392240177e+00 0.0000000000000000e+00 0.0000000000000000e+00  1.0001516937900958e+00 0.0000000000000000e+00 0.0000000000000000e+00  1.0000885946557718e+00 0.0000000000000000e+00 0.0000000000000000e+00  9.9969660520928394e-01 0.0000000000000000e+00 0.0000000000000000e+00  1.0003976828918617e+00 0.0000000000000000e+00 0.0000000000000000e+00  1.0002001828115956e+00 0.0000000000000000e+00 0.0000000000000000e+00  9.9978943290474076e-01 0.0000000000000000e+00 0.0000000000000000e+00  1.0000001313584799e+00 0.0000000000000000e+00 0.0000000000000000e+00  1.0000001313584799e+00 0.0000000000000000e+00 0.0000000000000000e+00  1.0000001313584799e+00 0.0000000000000000e+00 0.0000000000000000e+00  1.0000001313584799e+00 0.0000000000000000e+00 0.0000000000000000e+00  1.0000001313584799e+00 0.0000000000000000e+00 0.0000000000000000e+00  1.0000001313584799e+00 0.0000000000000000e+00 0.0000000000000000e+00  1.0000001313584799e+00 0.0000000000000000e+00 0.0000000000000000e+00  1.0000001313584799e+00 0.0000000000000000e+00 0.0000000000000000e+00  1.0000001313584799e+00 0.0000000000000000e+00 0.0000000000000000e+00  1.0000001313584799e+00 0.0000000000000000e+00 0.0000000000000000e+00  1.0000001313584799e+00 0.0000000000000000e+00 0.0000000000000000e+00  1.0000001313584799e+00 0.0000000000000000e+00 0.0000000000000000e+00  1.0000001313584799e+00 0.0000000000000000e+00 0.0000000000000000e+00  1.0000001313584799e+00 0.0000000000000000e+00 0.0000000000000000e+00  1.0000001313584799e+00 0.0000000000000000e+00 0.0000000000000000e+00  1.0000001313584799e+00 0.0000000000000000e+00 0.0000000000000000e+00  1.0000001313584799e+00 0.0000000000000000e+00 0.0000000000000000e+00  1.0000001313584799e+00 0.0000000000000000e+00 0.0000000000000000e+00  1.0000001313584799e+00 0.0000000000000000e+00 0.0000000000000000e+00  1.0000001313584799e+00 0.0000000000000000e+00 0.0000000000000000e+00  1.0385781906413816e+00 -8.9844689755680680e-03 0.0000000000000000e+00  1.0356506620746140e+00 -1.8161202177510289e-02 0.0000000000000000e+00  1.0335701507569535e+00 -2.8153648664520810e-02 0.0000000000000000e+00  1.0281573840100489e+00 -3.8505115677567731e-02 0.0000000000000000e+00  1.0227827705014350e+00 -5.2562608486448524e-02 0.0000000000000000e+00  1.0271325412803531e+00 -5.5633402811634231e-02 0.0000000000000000e+00  1.0310229802830202e+00 -5.8759178680153547e-02 0.0000000000000000e+00  1.0359072064008703e+00 -6.1537851619719627e-02 0.0000000000000000e+00  1.0409847271769337e+00 -6.4147335246896073e-02 0.0000000000000000e+00  1.0466243208481580e+00 -6.6293202863401540e-02 0.0000000000000000e+00  1.0527665548281464e+00 -6.8072536639400355e-02 0.0000000000000000e+00  1.0592195113169343e+00 -6.9170640315568424e-02 0.0000000000000000e+00  1.0660917468913480e+00 -6.9697911801614609e-02 0.0000000000000000e+00  1.0729001007897583e+00 -6.9338563774608619e-02 0.0000000000000000e+00  1.0798803024528669e+00 -6.8378205499789860e-02 0.0000000000000000e+00  1.0866557031367547e+00 -6.6740230714362872e-02 0.0000000000000000e+00  1.0933416117568091e+00 -6.4094740144072959e-02 0.0000000000000000e+00  1.0994161302437166e+00 -6.0640173253956778e-02 0.0000000000000000e+00  1.1049323815904715e+00 -5.6740761989143011e-02 0.0000000000000000e+00  1.1097684236642615e+00 -5.2297405521820182e-02 0.0000000000000000e+00  1.1137648057542091e+00 -4.7515231347494573e-02 0.0000000000000000e+00  1.1168711160042191e+00 -4.2524251159666064e-02 0.0000000000000000e+00  1.1192416216067509e+00 -3.7655476696429845e-02 0.0000000000000000e+00  1.1207977910179350e+00 -3.2779152685314443e-02 0.0000000000000000e+00  1.1216942533424126e+00 -2.8532266527813651e-02 0.0000000000000000e+00  1.1220240840106792e+00 -2.4392256144660122e-02 0.0000000000000000e+00  1.1219398845207949e+00 -2.0850481207302131e-02 0.0000000000000000e+00  1.1217539547974207e+00 -1.8027904249728607e-02 0.0000000000000000e+00  1.1215239513781905e+00 -1.5790456935253487e-02 0.0000000000000000e+00  1.1214421759667896e+00 -1.4062155273336348e-02 0.0000000000000000e+00  1.1216896472404572e+00 -1.2612785737358958e-02 0.0000000000000000e+00  1.1224541206768266e+00 -1.1433430092717004e-02 0.0000000000000000e+00  1.1236352253677389e+00 -1.0236799544770733e-02 0.0000000000000000e+00  1.1254582654832528e+00 -8.8012758934202882e-03 0.0000000000000000e+00  1.1277500207153697e+00 -6.9631136345350781e-03 0.0000000000000000e+00  1.1303870350040843e+00 -4.4202732003444673e