<?xml version="1.0"?>
<VTKFile type="UnstructuredGrid"  version="0.1"  >
<UnstructuredGrid>
<Piece  NumberOfPoints="10199" NumberOfCells="20110">
<Points>
<DataArray  type="Float64"  NumberOfComponents="3"  format="ascii">0 -5 0  8 -5 0  30 -5 0  40 -5 0  40 5 0  30 5 0  8 5 0  0 5 0  8 -2.5 0  15 -2.5 0  30 -2.5 0  30 2.5 0  15 2.5 0  8 2.5 0  10 0.5 0  10 -0.5 0  0 0 0  0.4210526315780956 -5 0  0.8421052631563433 -5 0  1.263157894734281 -5 0  1.684210526311999 -5 0  2.105263157889717 -5 0  2.526315789467435 -5 0  2.947368421045153 -5 0  3.368421052622872 -5 0  3.78947368420059 -5 0  4.210526315779479 -5 0  4.631578947359537 -5 0  5.052631578939595 -5 0  5.473684210519653 -5 0  5.89473684209971 -5 0  6.315789473679768 -5 0  6.736842105259826 -5 0  7.157894736839884 -5 0  7.578947368419942 -5 0  8.407407407405314 -5 0  8.814814814810628 -5 0  9.222222222215942 -5 0  9.629629629621256 -5 0  10.03703703702657 -5 0  10.44444444443188 -5 0  10.8518518518372 -5 0  11.25925925924251 -5 0  11.66666666664783 -5 0  12.07407407405314 -5 0  12.48148148145846 -5 0  12.88888888886377 -5 0  13.29629629626908 -5 0  13.7037037036744 -5 0  14.11111111107971 -5 0  14.51851851848502 -5 0  14.92592592589034 -5 0  15.33333333329565 -5 0  15.74074074070096 -5 0  16.14814814810754 -5 0  16.55555555551614 -5 0  16.96296296292474 -5 0  17.37037037033335 -5 0  17.77777777774195 -5 0  18.18518518515056 -5 0  18.59259259255916 -5 0  18.99999999996776 -5 0  19.40740740737636 -5 0  19.81481481478497 -5 0  20.22222222219357 -5 0  20.62962962960217 -5 0  21.03703703701077 -5 0  21.44444444441937 -5 0  21.85185185182797 -5 0  22.25925925923657 -5 0  22.66666666664518 -5 0  23.07407407405378 -5 0  23.48148148146238 -5 0  23.88888888887098 -5 0  24.29629629627958 -5 0  24.70370370368818 -5 0  25.11111111109678 -5 0  25.51851851850539 -5 0  25.92592592591399 -5 0  26.33333333332259 -5 0  26.74074074073119 -5 0  27.14814814813979 -5 0  27.55555555554839 -5 0  27.96296296295699 -5 0  28.3703703703656 -5 0  28.7777777777742 -5 0  29.1851851851828 -5 0  29.5925925925914 -5 0  30.41666666667852 -5 0  30.83333333335704 -5 0  31.25000000003556 -5 0  31.66666666671408 -5 0  32.08333333338936 -5 0  32.50000000005308 -5 0  32.9166666667168 -5 0  33.33333333338052 -5 0  33.75000000004424 -5 0  34.16666666670795 -5 0  34.58333333337167 -5 0  35.00000000003539 -5 0  35.41666666669911 -5 0  35.83333333336282 -5 0  36.25000000002654 -5 0  36.66666666669026 -5 0  37.08333333335398 -5 0  37.50000000001769 -5 0  37.91666666668141 -5 0  38.33333333334513 -5 0  38.75000000000885 -5 0  39.16666666667257 -5 0  39.58333333333628 -5 0  40 -4.583333333332821 0  40 -4.166666666665642 0  40 -3.74999999999855 0  40 -3.333333333333135 0  40 -2.916666666667806 0  40 -2.500000000002478 0  40 -2.083333333337148 0  40 -1.666666666671818 0  40 -1.250000000006488 0  40 -0.8333333333405228 0  40 -0.4166666666733416 0  40 -6.163070054299169e-12 0  40 0.4166666666610173 0  40 0.8333333333281976 0  40 1.249999999995378 0  40 1.666666666662558 0  40 2.083333333329739 0  40 2.499999999996919 0  40 2.916666666664099 0  40 3.33333333333128 0  40 3.74999999999846 0  40 4.166666666665641 0  40 4.583333333332821 0  39.58333333333628 5 0  39.16666666667256 5 0  38.75000000000885 5 0  38.33333333334513 5 0  37.91666666668141 5 0  37.50000000001769 5 0  37.08333333335398 5 0  36.66666666669025 5 0  36.25000000002654 5 0  35.83333333336282 5 0  35.41666666669911 5 0  35.00000000003539 5 0  34.58333333337167 5 0  34.16666666670795 5 0  33.75000000004424 5 0  33.33333333338052 5 0  32.9166666667168 5 0  32.50000000005308 5 0  32.08333333338936 5 0  31.66666666671408 5 0  31.25000000003556 5 0  30.83333333335704 5 0  30.41666666667852 5 0  29.59259259259259 5 0  29.18518518518519 5 0  28.77777777777778 5 0  28.37037037037037 5 0  27.96296296296296 5 0  27.55555555555556 5 0  27.14814814814815 5 0  26.74074074074074 5 0  26.33333333333333 5 0  25.92592592592593 5 0  25.51851851851852 5 0  25.11111111111111 5 0  24.7037037037037 5 0  24.2962962962963 5 0  23.88888888888889 5 0  23.48148148148148 5 0  23.07407407407408 5 0  22.66666666666667 5 0  22.25925925925926 5 0  21.85185185185185 5 0  21.44444444444445 5 0  21.03703703703704 5 0  20.62962962962963 5 0  20.22222222222222 5 0  19.81481481481482 5 0  19.40740740740741 5 0  19 5 0  18.5925925925926 5 0  18.18518518518519 5 0  17.77777777777778 5 0  17.37037037037037 5 0  16.96296296296296 5 0  16.55555555555556 5 0  16.14814814814815 5 0  15.74074074074074 5 0  15.33333333333333 5 0  14.92592592592593 5 0  14.51851851851852 5 0  14.11111111111111 5 0  13.70370370370371 5 0  13.2962962962963 5 0  12.88888888888889 5 0  12.48148148148148 5 0  12.07407407407408 5 0  11.66666666666667 5 0  11.25925925925926 5 0  10.85185185185185 5 0  10.44444444444445 5 0  10.03703703703704 5 0  9.629629629629633 5 0  9.222222222222221 5 0  8.814814814814817 5 0  8.407407407407408 5 0  7.5789473684193 5 0  7.157894736838599 5 0  6.73684210526082 5 0  6.315789473684795 5 0  5.894736842108769 5 0  5.473684210532742 5 0  5.052631578956715 5 0  4.631578947380689 5 0  4.210526315804662 5 0  3.789473684226299 5 0  3.368421052645599 5 0  2.947368421064898 5 0  2.526315789484198 5 0  2.105263157903499 5 0  1.6842105263228 5 0  1.2631578947421 5 0  0.8421052631613994 5 0  0.4210526315806993 5 0  0 4.545454545454545 0  0 4.09090909090909 0  0 3.636363636363634 0  0 3.18181818181818 0  0 2.727272727272726 0  0 2.272727272727271 0  0 1.818181818181817 0  0 1.363636363636363 0  0 0.9090909090909092 0  0 0.454545454545455 0  0 -0.4545454545450807 0  0 -0.9090909090895867 0  0 -1.363636363633713 0  0 -1.818181818177841 0  0 -2.272727272723127 0  0 -2.727272727269273 0  0 -3.181818181815419 0  0 -3.636363636361564 0  0 -4.090909090907709 0  0 -4.545454545453855 0  8 -4.499999999999999 0  8 -3.999999999999999 0  8 -3.499999999999999 0  8 -3 0  8.137254901963859 -2.5 0  8.274509803926303 -2.5 0  8.411764705886863 -2.5 0  8.549019607849138 -2.5 0  8.686274509809513 -2.5 0  8.82352941176989 -2.5 0  8.960784313730265 -2.5 0  9.098039215690642 -2.5 0  9.235294117651017 -2.5 0  9.372549019611395 -2.5 0  9.50980392157177 -2.5 0  9.647058823532147 -2.5 0  9.784313725492522 -2.5 0  9.921568627452897 -2.5 0  10.05882352941327 -2.5 0  10.19607843137365 -2.5 0  10.33333333333402 -2.5 0  10.4705882352944 -2.5 0  10.60784313725478 -2.5 0  10.74509803921515 -2.5 0  10.88235294117553 -2.5 0  11.0196078431359 -2.5 0  11.15686274509628 -2.5 0  11.29411764705665 -2.5 0  11.43137254901703 -2.5 0  11.56862745097915 -2.5 0  11.70588235294301 -2.5 0  11.84313725490686 -2.5 0  11.98039215687072 -2.5 0  12.11764705883209 -2.5 0  12.25490196079247 -2.5 0  12.39215686275285 -2.5 0  12.52941176471322 -2.5 0  12.6666666666736 -2.5 0  12.80392156863397 -2.5 0  12.94117647059435 -2.5 0  13.07843137255473 -2.5 0  13.2156862745151 -2.5 0  13.35294117647548 -2.5 0  13.49019607843586 -2.5 0  13.62745098039623 -2.5 0  13.76470588235661 -2.5 0  13.90196078431699 -2.5 0  14.03921568627736 -2.5 0  14.17647058823774 -2.5 0  14.31372549019812 -2.5 0  14.45098039215849 -2.5 0  14.58823529411887 -2.5 0  14.72549019607925 -2.5 0  14.86274509803962 -2.5 0  15.20270270270254 -2.5 0  15.40540540540509 -2.5 0  15.60810810810763 -2.5 0  15.81081081081017 -2.5 0  16.01351351351227 -2.5 0  16.21621621621265 -2.5 0  16.41891891891279 -2.5 0  16.62162162161294 -2.5 0  16.82432432431308 -2.5 0  17.02702702701322 -2.5 0  17.22972972971337 -2.5 0  17.43243243241351 -2.5 0  17.63513513511365 -2.5 0  17.83783783781379 -2.5 0  18.04054054051394 -2.5 0  18.24324324321408 -2.5 0  18.44594594591422 -2.5 0  18.64864864861436 -2.5 0  18.85135135131451 -2.5 0  19.05405405401465 -2.5 0  19.25675675671479 -2.5 0  19.45945945941494 -2.5 0  19.66216216211508 -2.5 0  19.86486486481522 -2.5 0  20.06756756751536 -2.5 0  20.27027027021551 -2.5 0  20.47297297291565 -2.5 0  20.6756756756158 -2.5 0  20.87837837831594 -2.5 0  21.08108108101608 -2.5 0  21.28378378371622 -2.5 0  21.48648648641637 -2.5 0  21.68918918911651 -2.5 0  21.89189189181666 -2.5 0  22.0945945945168 -2.5 0  22.29729729721694 -2.5 0  22.49999999991778 -2.5 0  22.70270270262203 -2.5 0  22.90540540532697 -2.5 0  23.10810810803191 -2.5 0  23.31081081073686 -2.5 0  23.5135135134418 -2.5 0  23.71621621614674 -2.5 0  23.91891891885169 -2.5 0  24.12162162155663 -2.5 0  24.32432432426158 -2.5 0  24.52702702696652 -2.5 0  24.72972972967146 -2.5 0  24.93243243237641 -2.5 0  25.13513513508135 -2.5 0  25.3378378377863 -2.5 0  25.54054054049124 -2.5 0  25.74324324319618 -2.5 0  25.94594594590112 -2.5 0  26.14864864860607 -2.5 0  26.35135135131101 -2.5 0  26.55405405401596 -2.5 0  26.7567567567209 -2.5 0  26.95945945942584 -2.5 0  27.16216216213079 -2.5 0  27.36486486483573 -2.5 0  27.56756756754068 -2.5 0  27.77027027024562 -2.5 0  27.97297297295056 -2.5 0  28.1756756756555 -2.5 0  28.37837837836045 -2.5 0  28.5810810810654 -2.5 0  28.78378378377034 -2.5 0  28.98648648647528 -2.5 0  29.18918918918023 -2.5 0  29.39189189188517 -2.5 0  29.59459459459011 -2.5 0  29.79729729729506 -2.5 0  30 -3.000000000000001 0  30 -3.500000000000001 0  30 -4.000000000000001 0  30 -4.5 0  8 4.499999999999999 0  8 3.999999999999999 0  8 3.499999999999999 0  8 3 0  8.137254901963859 2.5 0  8.274509803926303 2.5 0  8.411764705886863 2.5 0  8.549019607849138 2.5 0  8.686274509809513 2.5 0  8.82352941176989 2.5 0  8.960784313730265 2.5 0  9.098039215690642 2.5 0  9.235294117651017 2.5 0  9.372549019611395 2.5 0  9.50980392157177 2.5 0  9.647058823532147 2.5 0  9.784313725492522 2.5 0  9.921568627452897 2.5 0  10.05882352941327 2.5 0  10.19607843137365 2.5 0  10.33333333333402 2.5 0  10.4705882352944 2.5 0  10.60784313725478 2.5 0  10.74509803921515 2.5 0  10.88235294117553 2.5 0  11.0196078431359 2.5 0  11.15686274509628 2.5 0  11.29411764705665 2.5 0  11.43137254901703 2.5 0  11.56862745097915 2.5 0  11.70588235294301 2.5 0  11.84313725490686 2.5 0  11.98039215687072 2.5 0  12.11764705883209 2.5 0  12.25490196079247 2.5 0  1
[...]
<PointData  Vectors="f_17"> 
<DataArray  type="Float64"  Name="f_17"  NumberOfComponents="3" format="ascii">1.0000001299329084e+00 0.0000000000000000e+00 0.0000000000000000e+00  1.0415169611180464e+00 0.0000000000000000e+00 0.0000000000000000e+00  1.0496556417480545e+00 0.0000000000000000e+00 0.0000000000000000e+00  1.0728610025434886e+00 0.0000000000000000e+00 0.0000000000000000e+00  1.0930814650413301e+00 0.0000000000000000e+00 0.0000000000000000e+00  1.0649003212023835e+00 0.0000000000000000e+00 0.0000000000000000e+00  1.0393411116643219e+00 0.0000000000000000e+00 0.0000000000000000e+00  1.0000001299329084e+00 0.0000000000000000e+00 0.0000000000000000e+00  1.0207897947402049e+00 -5.2160611323871633e-02 0.0000000000000000e+00  1.0376071803550473e+00 -5.7753522493869162e-02 0.0000000000000000e+00  9.9034861687399112e-01 -2.1875429506104958e-02 0.0000000000000000e+00  1.1395767966835040e+00 -2.8853832055482823e-02 0.0000000000000000e+00  1.0675613257562226e+00 -9.0979312073037513e-02 0.0000000000000000e+00  1.0220118489778698e+00 4.9434354464573740e-02 0.0000000000000000e+00  0.0000000000000000e+00 0.0000000000000000e+00 0.0000000000000000e+00  0.0000000000000000e+00 0.0000000000000000e+00 0.0000000000000000e+00  1.0000001299329084e+00 0.0000000000000000e+00 0.0000000000000000e+00  9.9927444760207296e-01 0.0000000000000000e+00 0.0000000000000000e+00  9.9866016777633471e-01 0.0000000000000000e+00 0.0000000000000000e+00  1.0006753527738637e+00 0.0000000000000000e+00 0.0000000000000000e+00  1.0004166846391067e+00 0.0000000000000000e+00 0.0000000000000000e+00  1.0013322292440918e+00 0.0000000000000000e+00 0.0000000000000000e+00  1.0016051769354590e+00 0.0000000000000000e+00 0.0000000000000000e+00  1.0018974101793277e+00 0.0000000000000000e+00 0.0000000000000000e+00  1.0027553468499801e+00 0.0000000000000000e+00 0.0000000000000000e+00  1.0040073508125615e+00 0.0000000000000000e+00 0.0000000000000000e+00  1.0051902131202430e+00 0.0000000000000000e+00 0.0000000000000000e+00  1.0066815150745323e+00 0.0000000000000000e+00 0.0000000000000000e+00  1.0089486042254692e+00 0.0000000000000000e+00 0.0000000000000000e+00  1.0112819397844228e+00 0.0000000000000000e+00 0.0000000000000000e+00  1.0151515556388129e+00 0.0000000000000000e+00 0.0000000000000000e+00  1.0168141697503292e+00 0.0000000000000000e+00 0.0000000000000000e+00  1.0212982703621574e+00 0.0000000000000000e+00 0.0000000000000000e+00  1.0280124521401388e+00 0.0000000000000000e+00 0.0000000000000000e+00  1.0334519027155762e+00 0.0000000000000000e+00 0.0000000000000000e+00  1.0496992313801785e+00 0.0000000000000000e+00 0.0000000000000000e+00  1.0583695953960575e+00 0.0000000000000000e+00 0.0000000000000000e+00  1.0664839677246110e+00 0.0000000000000000e+00 0.0000000000000000e+00  1.0749775828645707e+00 0.0000000000000000e+00 0.0000000000000000e+00  1.0816775501700377e+00 0.0000000000000000e+00 0.0000000000000000e+00  1.0872105266490113e+00 0.0000000000000000e+00 0.0000000000000000e+00  1.0916317015619272e+00 0.0000000000000000e+00 0.0000000000000000e+00  1.0926496517313156e+00 0.0000000000000000e+00 0.0000000000000000e+00  1.0920142773038799e+00 0.0000000000000000e+00 0.0000000000000000e+00  1.0891250664390344e+00 0.0000000000000000e+00 0.0000000000000000e+00  1.0851017052343015e+00 0.0000000000000000e+00 0.0000000000000000e+00  1.0792978185997519e+00 0.0000000000000000e+00 0.0000000000000000e+00  1.0746578514515972e+00 0.0000000000000000e+00 0.0000000000000000e+00  1.0706825189022027e+00 0.0000000000000000e+00 0.0000000000000000e+00  1.0679825967887859e+00 0.0000000000000000e+00 0.0000000000000000e+00  1.0672476448681874e+00 0.0000000000000000e+00 0.0000000000000000e+00  1.0677405018965413e+00 0.0000000000000000e+00 0.0000000000000000e+00  1.0690157704140679e+00 0.0000000000000000e+00 0.0000000000000000e+00  1.0697672092254995e+00 0.0000000000000000e+00 0.0000000000000000e+00  1.0690642862290811e+00 0.0000000000000000e+00 0.0000000000000000e+00  1.0677537731760920e+00 0.0000000000000000e+00 0.0000000000000000e+00  1.0648029405921837e+00 0.0000000000000000e+00 0.0000000000000000e+00  1.0589601323143010e+00 0.0000000000000000e+00 0.0000000000000000e+00  1.0530503607498720e+00 0.0000000000000000e+00 0.0000000000000000e+00  1.0469865669304617e+00 0.0000000000000000e+00 0.0000000000000000e+00  1.0419595018059840e+00 0.0000000000000000e+00 0.0000000000000000e+00  1.0392667325390232e+00 0.0000000000000000e+00 0.0000000000000000e+00  1.0386222715627764e+00 0.0000000000000000e+00 0.0000000000000000e+00  1.0405226311199463e+00 0.0000000000000000e+00 0.0000000000000000e+00  1.0449745859609654e+00 0.0000000000000000e+00 0.0000000000000000e+00  1.0498720691226733e+00 0.0000000000000000e+00 0.0000000000000000e+00  1.0547726504950379e+00 0.0000000000000000e+00 0.0000000000000000e+00  1.0601884905301873e+00 0.0000000000000000e+00 0.0000000000000000e+00  1.0625427335029387e+00 0.0000000000000000e+00 0.0000000000000000e+00  1.0622853357674134e+00 0.0000000000000000e+00 0.0000000000000000e+00  1.0605994037495197e+00 0.0000000000000000e+00 0.0000000000000000e+00  1.0564729483882893e+00 0.0000000000000000e+00 0.0000000000000000e+00  1.0514990991504447e+00 0.0000000000000000e+00 0.0000000000000000e+00  1.0484551433136868e+00 0.0000000000000000e+00 0.0000000000000000e+00  1.0457930698989795e+00 0.0000000000000000e+00 0.0000000000000000e+00  1.0450161605917454e+00 0.0000000000000000e+00 0.0000000000000000e+00  1.0471379737609003e+00 0.0000000000000000e+00 0.0000000000000000e+00  1.0503252600912527e+00 0.0000000000000000e+00 0.0000000000000000e+00  1.0545447568486177e+00 0.0000000000000000e+00 0.0000000000000000e+00  1.0595915594712821e+00 0.0000000000000000e+00 0.0000000000000000e+00  1.0628312833220619e+00 0.0000000000000000e+00 0.0000000000000000e+00  1.0640040190488209e+00 0.0000000000000000e+00 0.0000000000000000e+00  1.0655825480822225e+00 0.0000000000000000e+00 0.0000000000000000e+00  1.0632222042055395e+00 0.0000000000000000e+00 0.0000000000000000e+00  1.0578479023315563e+00 0.0000000000000000e+00 0.0000000000000000e+00  1.0532495102733599e+00 0.0000000000000000e+00 0.0000000000000000e+00  1.0509417875391502e+00 0.0000000000000000e+00 0.0000000000000000e+00  1.0490999049648717e+00 0.0000000000000000e+00 0.0000000000000000e+00  1.0517737851878322e+00 0.0000000000000000e+00 0.0000000000000000e+00  1.0545410654631051e+00 0.0000000000000000e+00 0.0000000000000000e+00  1.0580252257758904e+00 0.0000000000000000e+00 0.0000000000000000e+00  1.0620661669758615e+00 0.0000000000000000e+00 0.0000000000000000e+00  1.0649317079085552e+00 0.0000000000000000e+00 0.0000000000000000e+00  1.0656102988739924e+00 0.0000000000000000e+00 0.0000000000000000e+00  1.0643194555400051e+00 0.0000000000000000e+00 0.0000000000000000e+00  1.0618520613268487e+00 0.0000000000000000e+00 0.0000000000000000e+00  1.0585539010241829e+00 0.0000000000000000e+00 0.0000000000000000e+00  1.0550749011754232e+00 0.0000000000000000e+00 0.0000000000000000e+00  1.0531661230105560e+00 0.0000000000000000e+00 0.0000000000000000e+00  1.0530517561351957e+00 0.0000000000000000e+00 0.0000000000000000e+00  1.0545943633946524e+00 0.0000000000000000e+00 0.0000000000000000e+00  1.0584107799475164e+00 0.0000000000000000e+00 0.0000000000000000e+00  1.0631395088412250e+00 0.0000000000000000e+00 0.0000000000000000e+00  1.0684785661009111e+00 0.0000000000000000e+00 0.0000000000000000e+00  1.0719357821125786e+00 0.0000000000000000e+00 0.0000000000000000e+00  1.0744208892502718e+00 0.0000000000000000e+00 0.0000000000000000e+00  1.0748094812437528e+00 0.0000000000000000e+00 0.0000000000000000e+00  1.0744999597298384e+00 0.0000000000000000e+00 0.0000000000000000e+00  1.0727787518206315e+00 0.0000000000000000e+00 0.0000000000000000e+00  1.0718624109940966e+00 0.0000000000000000e+00 0.0000000000000000e+00  1.0710860283251296e+00 0.0000000000000000e+00 0.0000000000000000e+00  1.0724326316125390e+00 -2.4093112446139731e-03 0.0000000000000000e+00  1.0700956166819977e+00 -4.7441973282022392e-03 0.0000000000000000e+00  1.0649608159448565e+00 -6.6341750883299180e-03 0.0000000000000000e+00  1.0532585524652369e+00 -7.5492990445826559e-03 0.0000000000000000e+00  1.0339878279038268e+00 -7.9963564242212463e-03 0.0000000000000000e+00  1.0023976916349286e+00 -5.8081739535208315e-03 0.0000000000000000e+00  9.5813259253427552e-01 -7.6455750737387754e-03 0.0000000000000000e+00  9.0523280881387480e-01 -1.4671835231274239e-02 0.0000000000000000e+00  8.4544401051501539e-01 -3.2627482618270989e-02 0.0000000000000000e+00  7.8010678956472146e-01 -5.4815390357692603e-02 0.0000000000000000e+00  7.2451600118374382e-01 -6.6699091206901123e-02 0.0000000000000000e+00  7.0573494007651472e-01 -6.4511336431602992e-02 0.0000000000000000e+00  7.4949734948273306e-01 -4.6476510854009001e-02 0.0000000000000000e+00  8.6081370245613420e-01 -2.2442531798768539e-02 0.0000000000000000e+00  1.0057090159104916e+00 1.3103324978484716e-02 0.0000000000000000e+00  1.1271466347963335e+00 3.5095274437463124e-02 0.0000000000000000e+00  1.1861099511177779e+00 4.0720818908166173e-02 0.0000000000000000e+00  1.1873250068847143e+00 3.8334425938905431e-02 0.0000000000000000e+00  1.1586181837785401e+00 2.7983465795634727e-02 0.0000000000000000e+00  1.1288411709443287e+00 1.9517826687744783e-02 0.0000000000000000e+00  1.1098692745675083e+00 1.2977460978936173e-02 0.0000000000000000e+00  1.1005606550845717e+00 8.0640834060239294e-03 0.0000000000000000e+00  1.0952029737451945e+00 3.7072707274711774e-03 0.0000000000000000e+00  1.0881066948265830e+00 0.0000000000000000e+00 0.0000000000000000e+00  1.0816125184440439e+00 0.0000000000000000e+00 0.0000000000000000e+00  1.0743058909074814e+00 0.0000000000000000e+00 0.0000000000000000e+00  1.0679020306653766e+00 0.0000000000000000e+00 0.0000000000000000e+00  1.0624073643629874e+00 0.0000000000000000e+00 0.0000000000000000e+00  1.0596096203540231e+00 0.0000000000000000e+00 0.0000000000000000e+00  1.0591876127289412e+00 0.0000000000000000e+00 0.0000000000000000e+00  1.0610296952586862e+00 0.0000000000000000e+00 0.0000000000000000e+00  1.0633015264505279e+00 0.0000000000000000e+00 0.0000000000000000e+00  1.0661049353400887e+00 0.0000000000000000e+00 0.0000000000000000e+00  1.0679494137577865e+00 0.0000000000000000e+00 0.0000000000000000e+00  1.0682462994009085e+00 0.0000000000000000e+00 0.0000000000000000e+00  1.0667117735690363e+00 0.0000000000000000e+00 0.0000000000000000e+00  1.0642706560833124e+00 0.0000000000000000e+00 0.0000000000000000e+00  1.0598557826640271e+00 0.0000000000000000e+00 0.0000000000000000e+00  1.0563777300583823e+00 0.0000000000000000e+00 0.0000000000000000e+00  1.0523002801978021e+00 0.0000000000000000e+00 0.0000000000000000e+00  1.0503823418507199e+00 0.0000000000000000e+00 0.0000000000000000e+00  1.0502740595306397e+00 0.0000000000000000e+00 0.0000000000000000e+00  1.0527062084826184e+00 0.0000000000000000e+00 0.0000000000000000e+00  1.0561308570631038e+00 0.0000000000000000e+00 0.0000000000000000e+00  1.0597886091239253e+00 0.0000000000000000e+00 0.0000000000000000e+00  1.0631892316516787e+00 0.0000000000000000e+00 0.0000000000000000e+00  1.0639408194109059e+00 0.0000000000000000e+00 0.0000000000000000e+00  1.0617287954248522e+00 0.0000000000000000e+00 0.0000000000000000e+00  1.0571890324631583e+00 0.0000000000000000e+00 0.0000000000000000e+00  1.0535730540109092e+00 0.0000000000000000e+00 0.0000000000000000e+00  1.0511942963860381e+00 0.0000000000000000e+00 0.0000000000000000e+00  1.0489670021797550e+00 0.0000000000000000e+00 0.0000000000000000e+00  1.0466368478329289e+00 0.0000000000000000e+00 0.0000000000000000e+00  1.0485214577204782e+00 0.0000000000000000e+00 0.0000000000000000e+00  1.0519855558803117e+00 0.0000000000000000e+00 0.0000000000000000e+00  1.0555724368017596e+00 0.0000000000000000e+00 0.0000000000000000e+00  1.0597256602687277e+00 0.0000000000000000e+00 0.0000000000000000e+00  1.0628035565431606e+00 0.0000000000000000e+00 0.0000000000000000e+00  1.0632958415616836e+00 0.0000000000000000e+00 0.0000000000000000e+00  1.0622406904847648e+00 0.0000000000000000e+00 0.0000000000000000e+00  1.0588489363339602e+00 0.0000000000000000e+00 0.0000000000000000e+00  1.0531727952019012e+00 0.0000000000000000e+00 0.0000000000000000e+00  1.0483684627827938e+00 0.0000000000000000e+00 0.0000000000000000e+00  1.0441995725541262e+00 0.0000000000000000e+00 0.0000000000000000e+00  1.0407193269252213e+00 0.0000000000000000e+00 0.0000000000000000e+00  1.0404843543874085e+00 0.0000000000000000e+00 0.0000000000000000e+00  1.0423888162321506e+00 0.0000000000000000e+00 0.0000000000000000e+00  1.0451938815205915e+00 0.0000000000000000e+00 0.0000000000000000e+00  1.0506117328954214e+00 0.0000000000000000e+00 0.0000000000000000e+00  1.0560836832447884e+00 0.0000000000000000e+00 0.0000000000000000e+00  1.0598264775219708e+00 0.0000000000000000e+00 0.0000000000000000e+00  1.0620689400097318e+00 0.0000000000000000e+00 0.0000000000000000e+00  1.0620412324498743e+00 0.0000000000000000e+00 0.0000000000000000e+00  1.0593173442212749e+00 0.0000000000000000e+00 0.0000000000000000e+00  1.0554111626030274e+00 0.0000000000000000e+00 0.0000000000000000e+00  1.0508941478628973e+00 0.0000000000000000e+00 0.0000000000000000e+00  1.0467305210225561e+00 0.0000000000000000e+00 0.0000000000000000e+00  1.0448849662341495e+00 0.0000000000000000e+00 0.0000000000000000e+00  1.0441461979936888e+00 0.0000000000000000e+00 0.0000000000000000e+00  1.0462834018355249e+00 0.0000000000000000e+00 0.0000000000000000e+00  1.0514235453138867e+00 0.0000000000000000e+00 0.0000000000000000e+00  1.0581771580489148e+00 0.0000000000000000e+00 0.0000000000000000e+00  1.0653197045796829e+00 0.0000000000000000e+00 0.0000000000000000e+00  1.0721695182505862e+00 0.0000000000000000e+00 0.0000000000000000e+00  1.0787684085732105e+00 0.0000000000000000e+00 0.0000000000000000e+00  1.0849940057480267e+00 0.0000000000000000e+00 0.0000000000000000e+00  1.0890492058103738e+00 0.0000000000000000e+00 0.0000000000000000e+00  1.0914312664809680e+00 0.0000000000000000e+00 0.0000000000000000e+00  1.0938599697941565e+00 0.0000000000000000e+00 0.0000000000000000e+00  1.0933920787796936e+00 0.0000000000000000e+00 0.0000000000000000e+00  1.0926819783068256e+00 0.0000000000000000e+00 0.0000000000000000e+00  1.0904950629349119e+00 0.0000000000000000e+00 0.0000000000000000e+00  1.0865328918474371e+00 0.0000000000000000e+00 0.0000000000000000e+00  1.0816165096324926e+00 0.0000000000000000e+00 0.0000000000000000e+00  1.0759891875939640e+00 0.0000000000000000e+00 0.0000000000000000e+00  1.0695134712158465e+00 0.0000000000000000e+00 0.0000000000000000e+00  1.0617409227350085e+00 0.0000000000000000e+00 0.0000000000000000e+00  1.0546311847692678e+00 0.0000000000000000e+00 0.0000000000000000e+00  1.0468412675621106e+00 0.0000000000000000e+00 0.0000000000000000e+00  1.0320329456774802e+00 0.0000000000000000e+00 0.0000000000000000e+00  1.0256125878417979e+00 0.0000000000000000e+00 0.0000000000000000e+00  1.0205068625101392e+00 0.0000000000000000e+00 0.0000000000000000e+00  1.0158979836127231e+00 0.0000000000000000e+00 0.0000000000000000e+00  1.0121430320658489e+00 0.0000000000000000e+00 0.0000000000000000e+00  1.0091901700711978e+00 0.0000000000000000e+00 0.0000000000000000e+00  1.0069787921335609e+00 0.0000000000000000e+00 0.0000000000000000e+00  1.0048673899499763e+00 0.0000000000000000e+00 0.0000000000000000e+00  1.0034452602976773e+00 0.0000000000000000e+00 0.0000000000000000e+00  1.0025190664256243e+00 0.0000000000000000e+00 0.0000000000000000e+00  1.0014297382869854e+00 0.0000000000000000e+00 0.0000000000000000e+00  1.0013465632372691e+00 0.0000000000000000e+00 0.0000000000000000e+00  1.0003436252699913e+00 0.0000000000000000e+00 0.0000000000000000e+00  1.0003548987025197e+00 0.0000000000000000e+00 0.0000000000000000e+00  9.9993423410992976e-01 0.0000000000000000e+00 0.0000000000000000e+00  1.0005883004306506e+00 0.0000000000000000e+00 0.0000000000000000e+00  1.0002981559694157e+00 0.0000000000000000e+00 0.0000000000000000e+00  9.9980619221743183e-01 0.0000000000000000e+00 0.0000000000000000e+00  1.0000001299329084e+00 0.0000000000000000e+00 0.0000000000000000e+00  1.0000001299329084e+00 0.0000000000000000e+00 0.0000000000000000e+00  1.0000001299329084e+00 0.0000000000000000e+00 0.0000000000000000e+00  1.0000001299329084e+00 0.0000000000000000e+00 0.0000000000000000e+00  1.0000001299329084e+00 0.0000000000000000e+00 0.0000000000000000e+00  1.0000001299329084e+00 0.0000000000000000e+00 0.0000000000000000e+00  1.0000001299329084e+00 0.0000000000000000e+00 0.0000000000000000e+00  1.0000001299329084e+00 0.0000000000000000e+00 0.0000000000000000e+00  1.0000001299329084e+00 0.0000000000000000e+00 0.0000000000000000e+00  1.0000001299329084e+00 0.0000000000000000e+00 0.0000000000000000e+00  1.0000001299329084e+00 0.0000000000000000e+00 0.0000000000000000e+00  1.0000001299329084e+00 0.0000000000000000e+00 0.0000000000000000e+00  1.0000001299329084e+00 0.0000000000000000e+00 0.0000000000000000e+00  1.0000001299329084e+00 0.0000000000000000e+00 0.0000000000000000e+00  1.0000001299329084e+00 0.0000000000000000e+00 0.0000000000000000e+00  1.0000001299329084e+00 0.0000000000000000e+00 0.0000000000000000e+00  1.0000001299329084e+00 0.0000000000000000e+00 0.0000000000000000e+00  1.0000001299329084e+00 0.0000000000000000e+00 0.0000000000000000e+00  1.0000001299329084e+00 0.0000000000000000e+00 0.0000000000000000e+00  1.0000001299329084e+00 0.0000000000000000e+00 0.0000000000000000e+00  1.0409089181708495e+00 -9.5721257441491129e-03 0.0000000000000000e+00  1.0378765237893488e+00 -1.9332667212493739e-02 0.0000000000000000e+00  1.0355641342058284e+00 -2.9816521753079851e-02 0.0000000000000000e+00  1.0296525374136041e+00 -4.0877172853862075e-02 0.0000000000000000e+00  1.0235163015769959e+00 -5.6048643978496279e-02 0.0000000000000000e+00  1.0279628906649259e+00 -5.9596341453146198e-02 0.0000000000000000e+00  1.0320747199845910e+00 -6.3213177113044902e-02 0.0000000000000000e+00  1.0372017013140169e+00 -6.6542195295295703e-02 0.0000000000000000e+00  1.0426292774103858e+00 -6.9713111415557485e-02 0.0000000000000000e+00  1.0487002147492952e+00 -7.2474700412640577e-02 0.0000000000000000e+00  1.0553702905799363e+00 -7.4860810686340248e-02 0.0000000000000000e+00  1.0625223702670603e+00 -7.6575224882346485e-02 0.0000000000000000e+00  1.0701978820624416e+00 -7.7723038717140605e-02 0.0000000000000000e+00  1.0780452707035997e+00 -7.7963055719248123e-02 0.0000000000000000e+00  1.0862374062278652e+00 -7.7505760863130602e-02 0.0000000000000000e+00  1.0945104814859159e+00 -7.6214292237640188e-02 0.0000000000000000e+00  1.1028766430307009e+00 -7.3807242774142745e-02 0.0000000000000000e+00  1.1109045108878566e+00 -7.0400749274224877e-02 0.0000000000000000e+00  1.1186641450765451e+00 -6.6181761653548665e-02 0.0000000000000000e+00  1.1259936074587988e+00 -6.1048437494126424e-02 0.0000000000000000e+00  1.1326575105396244e+00 -5.5021908126077816e-02 0.0000000000000000e+00  1.1386665623999437e+00 -4.8253089486321440e-02 0.0000000000000000e+00  1.1438538219592607e+00 -4.0836821911572299e-02 0.0000000000000000e+00  1.1482121993350898e+00 -3.2675681602252586e-02 0.0000000000000000e+00  1.1516386364617919e+00 -2.4204979860530121e-02 0.0000000000000000e+00  1.1540898671471680e+00 -1.5180493809664311e-02 0.0000000000000000e+00  1.1553365581979325e+00 -5.7791916813204119e-03 0.0000000000000000e+00  1.1556188932499476e+00 3.7465453040993451e-03 0.0000000000000000e+00  1.1545687414202839e+00 1.3300793992269570e-02 0.0000000000000000e+00  1.1523401907878252e+00 2.2814284781757108e-02 0.0000000000000000e+00  1.1488157142354070e+00 3.2082892200165060e-02 0.0000000000000000e+00  1.1439927285448992e+00 4.0815252584410593e-02 0.0000000000000000e+00  1.1379769350354476e+00 4.9042060928350055e-02 0.0000000000000000e+00  1.1307364144067029e+00 5.6537828429506817e-02 0.0000000000000000e+00  1.1224838608788315e+00 6.2969298088983217e-02 0.0000000000000000e+00  1.1132901570554732e+00 6.82542890681