<?xml version="1.0"?>
<VTKFile type="UnstructuredGrid"  version="0.1"  >
<UnstructuredGrid>
<Piece  NumberOfPoints="10199" NumberOfCells="20110">
<Points>
<DataArray  type="Float64"  NumberOfComponents="3"  format="ascii">0 -5 0  8 -5 0  30 -5 0  40 -5 0  40 5 0  30 5 0  8 5 0  0 5 0  8 -2.5 0  15 -2.5 0  30 -2.5 0  30 2.5 0  15 2.5 0  8 2.5 0  10 0.5 0  10 -0.5 0  0 0 0  0.4210526315780956 -5 0  0.8421052631563433 -5 0  1.263157894734281 -5 0  1.684210526311999 -5 0  2.105263157889717 -5 0  2.526315789467435 -5 0  2.947368421045153 -5 0  3.368421052622872 -5 0  3.78947368420059 -5 0  4.210526315779479 -5 0  4.631578947359537 -5 0  5.052631578939595 -5 0  5.473684210519653 -5 0  5.89473684209971 -5 0  6.315789473679768 -5 0  6.736842105259826 -5 0  7.157894736839884 -5 0  7.578947368419942 -5 0  8.407407407405314 -5 0  8.814814814810628 -5 0  9.222222222215942 -5 0  9.629629629621256 -5 0  10.03703703702657 -5 0  10.44444444443188 -5 0  10.8518518518372 -5 0  11.25925925924251 -5 0  11.66666666664783 -5 0  12.07407407405314 -5 0  12.48148148145846 -5 0  12.88888888886377 -5 0  13.29629629626908 -5 0  13.7037037036744 -5 0  14.11111111107971 -5 0  14.51851851848502 -5 0  14.92592592589034 -5 0  15.33333333329565 -5 0  15.74074074070096 -5 0  16.14814814810754 -5 0  16.55555555551614 -5 0  16.96296296292474 -5 0  17.37037037033335 -5 0  17.77777777774195 -5 0  18.18518518515056 -5 0  18.59259259255916 -5 0  18.99999999996776 -5 0  19.40740740737636 -5 0  19.81481481478497 -5 0  20.22222222219357 -5 0  20.62962962960217 -5 0  21.03703703701077 -5 0  21.44444444441937 -5 0  21.85185185182797 -5 0  22.25925925923657 -5 0  22.66666666664518 -5 0  23.07407407405378 -5 0  23.48148148146238 -5 0  23.88888888887098 -5 0  24.29629629627958 -5 0  24.70370370368818 -5 0  25.11111111109678 -5 0  25.51851851850539 -5 0  25.92592592591399 -5 0  26.33333333332259 -5 0  26.74074074073119 -5 0  27.14814814813979 -5 0  27.55555555554839 -5 0  27.96296296295699 -5 0  28.3703703703656 -5 0  28.7777777777742 -5 0  29.1851851851828 -5 0  29.5925925925914 -5 0  30.41666666667852 -5 0  30.83333333335704 -5 0  31.25000000003556 -5 0  31.66666666671408 -5 0  32.08333333338936 -5 0  32.50000000005308 -5 0  32.9166666667168 -5 0  33.33333333338052 -5 0  33.75000000004424 -5 0  34.16666666670795 -5 0  34.58333333337167 -5 0  35.00000000003539 -5 0  35.41666666669911 -5 0  35.83333333336282 -5 0  36.25000000002654 -5 0  36.66666666669026 -5 0  37.08333333335398 -5 0  37.50000000001769 -5 0  37.91666666668141 -5 0  38.33333333334513 -5 0  38.75000000000885 -5 0  39.16666666667257 -5 0  39.58333333333628 -5 0  40 -4.583333333332821 0  40 -4.166666666665642 0  40 -3.74999999999855 0  40 -3.333333333333135 0  40 -2.916666666667806 0  40 -2.500000000002478 0  40 -2.083333333337148 0  40 -1.666666666671818 0  40 -1.250000000006488 0  40 -0.8333333333405228 0  40 -0.4166666666733416 0  40 -6.163070054299169e-12 0  40 0.4166666666610173 0  40 0.8333333333281976 0  40 1.249999999995378 0  40 1.666666666662558 0  40 2.083333333329739 0  40 2.499999999996919 0  40 2.916666666664099 0  40 3.33333333333128 0  40 3.74999999999846 0  40 4.166666666665641 0  40 4.583333333332821 0  39.58333333333628 5 0  39.16666666667256 5 0  38.75000000000885 5 0  38.33333333334513 5 0  37.91666666668141 5 0  37.50000000001769 5 0  37.08333333335398 5 0  36.66666666669025 5 0  36.25000000002654 5 0  35.83333333336282 5 0  35.41666666669911 5 0  35.00000000003539 5 0  34.58333333337167 5 0  34.16666666670795 5 0  33.75000000004424 5 0  33.33333333338052 5 0  32.9166666667168 5 0  32.50000000005308 5 0  32.08333333338936 5 0  31.66666666671408 5 0  31.25000000003556 5 0  30.83333333335704 5 0  30.41666666667852 5 0  29.59259259259259 5 0  29.18518518518519 5 0  28.77777777777778 5 0  28.37037037037037 5 0  27.96296296296296 5 0  27.55555555555556 5 0  27.14814814814815 5 0  26.74074074074074 5 0  26.33333333333333 5 0  25.92592592592593 5 0  25.51851851851852 5 0  25.11111111111111 5 0  24.7037037037037 5 0  24.2962962962963 5 0  23.88888888888889 5 0  23.48148148148148 5 0  23.07407407407408 5 0  22.66666666666667 5 0  22.25925925925926 5 0  21.85185185185185 5 0  21.44444444444445 5 0  21.03703703703704 5 0  20.62962962962963 5 0  20.22222222222222 5 0  19.81481481481482 5 0  19.40740740740741 5 0  19 5 0  18.5925925925926 5 0  18.18518518518519 5 0  17.77777777777778 5 0  17.37037037037037 5 0  16.96296296296296 5 0  16.55555555555556 5 0  16.14814814814815 5 0  15.74074074074074 5 0  15.33333333333333 5 0  14.92592592592593 5 0  14.51851851851852 5 0  14.11111111111111 5 0  13.70370370370371 5 0  13.2962962962963 5 0  12.88888888888889 5 0  12.48148148148148 5 0  12.07407407407408 5 0  11.66666666666667 5 0  11.25925925925926 5 0  10.85185185185185 5 0  10.44444444444445 5 0  10.03703703703704 5 0  9.629629629629633 5 0  9.222222222222221 5 0  8.814814814814817 5 0  8.407407407407408 5 0  7.5789473684193 5 0  7.157894736838599 5 0  6.73684210526082 5 0  6.315789473684795 5 0  5.894736842108769 5 0  5.473684210532742 5 0  5.052631578956715 5 0  4.631578947380689 5 0  4.210526315804662 5 0  3.789473684226299 5 0  3.368421052645599 5 0  2.947368421064898 5 0  2.526315789484198 5 0  2.105263157903499 5 0  1.6842105263228 5 0  1.2631578947421 5 0  0.8421052631613994 5 0  0.4210526315806993 5 0  0 4.545454545454545 0  0 4.09090909090909 0  0 3.636363636363634 0  0 3.18181818181818 0  0 2.727272727272726 0  0 2.272727272727271 0  0 1.818181818181817 0  0 1.363636363636363 0  0 0.9090909090909092 0  0 0.454545454545455 0  0 -0.4545454545450807 0  0 -0.9090909090895867 0  0 -1.363636363633713 0  0 -1.818181818177841 0  0 -2.272727272723127 0  0 -2.727272727269273 0  0 -3.181818181815419 0  0 -3.636363636361564 0  0 -4.090909090907709 0  0 -4.545454545453855 0  8 -4.499999999999999 0  8 -3.999999999999999 0  8 -3.499999999999999 0  8 -3 0  8.137254901963859 -2.5 0  8.274509803926303 -2.5 0  8.411764705886863 -2.5 0  8.549019607849138 -2.5 0  8.686274509809513 -2.5 0  8.82352941176989 -2.5 0  8.960784313730265 -2.5 0  9.098039215690642 -2.5 0  9.235294117651017 -2.5 0  9.372549019611395 -2.5 0  9.50980392157177 -2.5 0  9.647058823532147 -2.5 0  9.784313725492522 -2.5 0  9.921568627452897 -2.5 0  10.05882352941327 -2.5 0  10.19607843137365 -2.5 0  10.33333333333402 -2.5 0  10.4705882352944 -2.5 0  10.60784313725478 -2.5 0  10.74509803921515 -2.5 0  10.88235294117553 -2.5 0  11.0196078431359 -2.5 0  11.15686274509628 -2.5 0  11.29411764705665 -2.5 0  11.43137254901703 -2.5 0  11.56862745097915 -2.5 0  11.70588235294301 -2.5 0  11.84313725490686 -2.5 0  11.98039215687072 -2.5 0  12.11764705883209 -2.5 0  12.25490196079247 -2.5 0  12.39215686275285 -2.5 0  12.52941176471322 -2.5 0  12.6666666666736 -2.5 0  12.80392156863397 -2.5 0  12.94117647059435 -2.5 0  13.07843137255473 -2.5 0  13.2156862745151 -2.5 0  13.35294117647548 -2.5 0  13.49019607843586 -2.5 0  13.62745098039623 -2.5 0  13.76470588235661 -2.5 0  13.90196078431699 -2.5 0  14.03921568627736 -2.5 0  14.17647058823774 -2.5 0  14.31372549019812 -2.5 0  14.45098039215849 -2.5 0  14.58823529411887 -2.5 0  14.72549019607925 -2.5 0  14.86274509803962 -2.5 0  15.20270270270254 -2.5 0  15.40540540540509 -2.5 0  15.60810810810763 -2.5 0  15.81081081081017 -2.5 0  16.01351351351227 -2.5 0  16.21621621621265 -2.5 0  16.41891891891279 -2.5 0  16.62162162161294 -2.5 0  16.82432432431308 -2.5 0  17.02702702701322 -2.5 0  17.22972972971337 -2.5 0  17.43243243241351 -2.5 0  17.63513513511365 -2.5 0  17.83783783781379 -2.5 0  18.04054054051394 -2.5 0  18.24324324321408 -2.5 0  18.44594594591422 -2.5 0  18.64864864861436 -2.5 0  18.85135135131451 -2.5 0  19.05405405401465 -2.5 0  19.25675675671479 -2.5 0  19.45945945941494 -2.5 0  19.66216216211508 -2.5 0  19.86486486481522 -2.5 0  20.06756756751536 -2.5 0  20.27027027021551 -2.5 0  20.47297297291565 -2.5 0  20.6756756756158 -2.5 0  20.87837837831594 -2.5 0  21.08108108101608 -2.5 0  21.28378378371622 -2.5 0  21.48648648641637 -2.5 0  21.68918918911651 -2.5 0  21.89189189181666 -2.5 0  22.0945945945168 -2.5 0  22.29729729721694 -2.5 0  22.49999999991778 -2.5 0  22.70270270262203 -2.5 0  22.90540540532697 -2.5 0  23.10810810803191 -2.5 0  23.31081081073686 -2.5 0  23.5135135134418 -2.5 0  23.71621621614674 -2.5 0  23.91891891885169 -2.5 0  24.12162162155663 -2.5 0  24.32432432426158 -2.5 0  24.52702702696652 -2.5 0  24.72972972967146 -2.5 0  24.93243243237641 -2.5 0  25.13513513508135 -2.5 0  25.3378378377863 -2.5 0  25.54054054049124 -2.5 0  25.74324324319618 -2.5 0  25.94594594590112 -2.5 0  26.14864864860607 -2.5 0  26.35135135131101 -2.5 0  26.55405405401596 -2.5 0  26.7567567567209 -2.5 0  26.95945945942584 -2.5 0  27.16216216213079 -2.5 0  27.36486486483573 -2.5 0  27.56756756754068 -2.5 0  27.77027027024562 -2.5 0  27.97297297295056 -2.5 0  28.1756756756555 -2.5 0  28.37837837836045 -2.5 0  28.5810810810654 -2.5 0  28.78378378377034 -2.5 0  28.98648648647528 -2.5 0  29.18918918918023 -2.5 0  29.39189189188517 -2.5 0  29.59459459459011 -2.5 0  29.79729729729506 -2.5 0  30 -3.000000000000001 0  30 -3.500000000000001 0  30 -4.000000000000001 0  30 -4.5 0  8 4.499999999999999 0  8 3.999999999999999 0  8 3.499999999999999 0  8 3 0  8.137254901963859 2.5 0  8.274509803926303 2.5 0  8.411764705886863 2.5 0  8.549019607849138 2.5 0  8.686274509809513 2.5 0  8.82352941176989 2.5 0  8.960784313730265 2.5 0  9.098039215690642 2.5 0  9.235294117651017 2.5 0  9.372549019611395 2.5 0  9.50980392157177 2.5 0  9.647058823532147 2.5 0  9.784313725492522 2.5 0  9.921568627452897 2.5 0  10.05882352941327 2.5 0  10.19607843137365 2.5 0  10.33333333333402 2.5 0  10.4705882352944 2.5 0  10.60784313725478 2.5 0  10.74509803921515 2.5 0  10.88235294117553 2.5 0  11.0196078431359 2.5 0  11.15686274509628 2.5 0  11.29411764705665 2.5 0  11.43137254901703 2.5 0  11.56862745097915 2.5 0  11.70588235294301 2.5 0  11.84313725490686 2.5 0  11.98039215687072 2.5 0  12.11764705883209 2.5 0  12.25490196079247 2.5 0  1
[...]
<PointData  Vectors="f_17"> 
<DataArray  type="Float64"  Name="f_17"  NumberOfComponents="3" format="ascii">1.0000001326719821e+00 0.0000000000000000e+00 0.0000000000000000e+00  1.0423302619813868e+00 0.0000000000000000e+00 0.0000000000000000e+00  1.0650508657616036e+00 0.0000000000000000e+00 0.0000000000000000e+00  1.1043236267659911e+00 0.0000000000000000e+00 0.0000000000000000e+00  1.0885895238081571e+00 0.0000000000000000e+00 0.0000000000000000e+00  1.0584277924081709e+00 0.0000000000000000e+00 0.0000000000000000e+00  1.0387183624965575e+00 0.0000000000000000e+00 0.0000000000000000e+00  1.0000001326719821e+00 0.0000000000000000e+00 0.0000000000000000e+00  1.0256764025983314e+00 -5.1570662088004718e-02 0.0000000000000000e+00  1.1366252350596771e+00 3.6010227631938015e-02 0.0000000000000000e+00  1.1346343689766278e+00 -7.6055425438873087e-02 0.0000000000000000e+00  1.0181701150731153e+00 -6.3405118134867600e-02 0.0000000000000000e+00  9.8619889262541638e-01 -2.1390188910560104e-02 0.0000000000000000e+00  1.0171439199229197e+00 5.0244395062904623e-02 0.0000000000000000e+00  0.0000000000000000e+00 0.0000000000000000e+00 0.0000000000000000e+00  0.0000000000000000e+00 0.0000000000000000e+00 0.0000000000000000e+00  1.0000001326719821e+00 0.0000000000000000e+00 0.0000000000000000e+00  9.9930762070098111e-01 0.0000000000000000e+00 0.0000000000000000e+00  9.9880895098752331e-01 0.0000000000000000e+00 0.0000000000000000e+00  1.0009374842220378e+00 0.0000000000000000e+00 0.0000000000000000e+00  1.0008704859255246e+00 0.0000000000000000e+00 0.0000000000000000e+00  1.0019870423836403e+00 0.0000000000000000e+00 0.0000000000000000e+00  1.0024578172029901e+00 0.0000000000000000e+00 0.0000000000000000e+00  1.0028985697248858e+00 0.0000000000000000e+00 0.0000000000000000e+00  1.0038410669843911e+00 0.0000000000000000e+00 0.0000000000000000e+00  1.0051668525286594e+00 0.0000000000000000e+00 0.0000000000000000e+00  1.0063458740835443e+00 0.0000000000000000e+00 0.0000000000000000e+00  1.0078639308193575e+00 0.0000000000000000e+00 0.0000000000000000e+00  1.0100954060948526e+00 0.0000000000000000e+00 0.0000000000000000e+00  1.0124457008126184e+00 0.0000000000000000e+00 0.0000000000000000e+00  1.0163743339803191e+00 0.0000000000000000e+00 0.0000000000000000e+00  1.0180836101485260e+00 0.0000000000000000e+00 0.0000000000000000e+00  1.0226109565966426e+00 0.0000000000000000e+00 0.0000000000000000e+00  1.0292936418564644e+00 0.0000000000000000e+00 0.0000000000000000e+00  1.0346080379507288e+00 0.0000000000000000e+00 0.0000000000000000e+00  1.0499598913047907e+00 0.0000000000000000e+00 0.0000000000000000e+00  1.0578325464642844e+00 0.0000000000000000e+00 0.0000000000000000e+00  1.0648665919316889e+00 0.0000000000000000e+00 0.0000000000000000e+00  1.0720155279127435e+00 0.0000000000000000e+00 0.0000000000000000e+00  1.0773617050541435e+00 0.0000000000000000e+00 0.0000000000000000e+00  1.0816603812524948e+00 0.0000000000000000e+00 0.0000000000000000e+00  1.0853284418399860e+00 0.0000000000000000e+00 0.0000000000000000e+00  1.0864342836184708e+00 0.0000000000000000e+00 0.0000000000000000e+00  1.0869244334467953e+00 0.0000000000000000e+00 0.0000000000000000e+00  1.0864110670243496e+00 0.0000000000000000e+00 0.0000000000000000e+00  1.0859283778032010e+00 0.0000000000000000e+00 0.0000000000000000e+00  1.0844049964591496e+00 0.0000000000000000e+00 0.0000000000000000e+00  1.0839257125264710e+00 0.0000000000000000e+00 0.0000000000000000e+00  1.0831663654999091e+00 0.0000000000000000e+00 0.0000000000000000e+00  1.0816675341039137e+00 0.0000000000000000e+00 0.0000000000000000e+00  1.0795652204984754e+00 0.0000000000000000e+00 0.0000000000000000e+00  1.0760167155066009e+00 0.0000000000000000e+00 0.0000000000000000e+00  1.0710837408256990e+00 0.0000000000000000e+00 0.0000000000000000e+00  1.0645595165781072e+00 0.0000000000000000e+00 0.0000000000000000e+00  1.0571240520370560e+00 0.0000000000000000e+00 0.0000000000000000e+00  1.0508607267035146e+00 0.0000000000000000e+00 0.0000000000000000e+00  1.0460902649460686e+00 0.0000000000000000e+00 0.0000000000000000e+00  1.0418722082926286e+00 0.0000000000000000e+00 0.0000000000000000e+00  1.0409347914545140e+00 0.0000000000000000e+00 0.0000000000000000e+00  1.0423238708089462e+00 0.0000000000000000e+00 0.0000000000000000e+00  1.0457989771236396e+00 0.0000000000000000e+00 0.0000000000000000e+00  1.0511357618326127e+00 0.0000000000000000e+00 0.0000000000000000e+00  1.0563181967961826e+00 0.0000000000000000e+00 0.0000000000000000e+00  1.0606234033283302e+00 0.0000000000000000e+00 0.0000000000000000e+00  1.0634770844907881e+00 0.0000000000000000e+00 0.0000000000000000e+00  1.0630159182267223e+00 0.0000000000000000e+00 0.0000000000000000e+00  1.0601636729863018e+00 0.0000000000000000e+00 0.0000000000000000e+00  1.0569811444583512e+00 0.0000000000000000e+00 0.0000000000000000e+00  1.0520521769818019e+00 0.0000000000000000e+00 0.0000000000000000e+00  1.0473151901670965e+00 0.0000000000000000e+00 0.0000000000000000e+00  1.0449370177817852e+00 0.0000000000000000e+00 0.0000000000000000e+00  1.0436860962976617e+00 0.0000000000000000e+00 0.0000000000000000e+00  1.0445227093372103e+00 0.0000000000000000e+00 0.0000000000000000e+00  1.0489428396101061e+00 0.0000000000000000e+00 0.0000000000000000e+00  1.0536752726757084e+00 0.0000000000000000e+00 0.0000000000000000e+00  1.0586303826088381e+00 0.0000000000000000e+00 0.0000000000000000e+00  1.0636648341601660e+00 0.0000000000000000e+00 0.0000000000000000e+00  1.0662998078360795e+00 0.0000000000000000e+00 0.0000000000000000e+00  1.0666908095166741e+00 0.0000000000000000e+00 0.0000000000000000e+00  1.0655438465090328e+00 0.0000000000000000e+00 0.0000000000000000e+00  1.0619394899595171e+00 0.0000000000000000e+00 0.0000000000000000e+00  1.0574229545903444e+00 0.0000000000000000e+00 0.0000000000000000e+00  1.0557537732328439e+00 0.0000000000000000e+00 0.0000000000000000e+00  1.0533801933756752e+00 0.0000000000000000e+00 0.0000000000000000e+00  1.0511559014119829e+00 0.0000000000000000e+00 0.0000000000000000e+00  1.0520876303904714e+00 0.0000000000000000e+00 0.0000000000000000e+00  1.0561617918106678e+00 0.0000000000000000e+00 0.0000000000000000e+00  1.0604574744227817e+00 0.0000000000000000e+00 0.0000000000000000e+00  1.0686534538001333e+00 0.0000000000000000e+00 0.0000000000000000e+00  1.0697813510060998e+00 0.0000000000000000e+00 0.0000000000000000e+00  1.0689314814540019e+00 0.0000000000000000e+00 0.0000000000000000e+00  1.0673677949798652e+00 0.0000000000000000e+00 0.0000000000000000e+00  1.0644931096826213e+00 0.0000000000000000e+00 0.0000000000000000e+00  1.0612244620543816e+00 0.0000000000000000e+00 0.0000000000000000e+00  1.0587461875129593e+00 0.0000000000000000e+00 0.0000000000000000e+00  1.0583025052472714e+00 0.0000000000000000e+00 0.0000000000000000e+00  1.0597242207378568e+00 0.0000000000000000e+00 0.0000000000000000e+00  1.0624418615612612e+00 0.0000000000000000e+00 0.0000000000000000e+00  1.0667903278956152e+00 0.0000000000000000e+00 0.0000000000000000e+00  1.0711101031727992e+00 0.0000000000000000e+00 0.0000000000000000e+00  1.0744392230057738e+00 0.0000000000000000e+00 0.0000000000000000e+00  1.0769383886391881e+00 0.0000000000000000e+00 0.0000000000000000e+00  1.0777149491215361e+00 0.0000000000000000e+00 0.0000000000000000e+00  1.0776585200624893e+00 0.0000000000000000e+00 0.0000000000000000e+00  1.0759306457901825e+00 0.0000000000000000e+00 0.0000000000000000e+00  1.0748719028124765e+00 0.0000000000000000e+00 0.0000000000000000e+00  1.0745545946868926e+00 0.0000000000000000e+00 0.0000000000000000e+00  1.0766254327937408e+00 0.0000000000000000e+00 0.0000000000000000e+00  1.0804242052659496e+00 0.0000000000000000e+00 0.0000000000000000e+00  1.0873337420977298e+00 0.0000000000000000e+00 0.0000000000000000e+00  1.0950807762522916e+00 0.0000000000000000e+00 0.0000000000000000e+00  1.1053626788441830e+00 -9.1560520714462426e-03 0.0000000000000000e+00  1.1076439781036496e+00 -2.0123745008456328e-02 0.0000000000000000e+00  1.1113372987935211e+00 -3.4821790426689467e-02 0.0000000000000000e+00  1.1147678765533282e+00 -5.6107005191170595e-02 0.0000000000000000e+00  1.1213234902315641e+00 -9.0847991595715896e-02 0.0000000000000000e+00  1.1236232469408967e+00 -1.3946059136063882e-01 0.0000000000000000e+00  1.0977923104342686e+00 -2.0085387456749929e-01 0.0000000000000000e+00  1.0249346085522817e+00 -2.5287063230939250e-01 0.0000000000000000e+00  9.1042944771160694e-01 -2.7917670878007933e-01 0.0000000000000000e+00  7.9495045040876755e-01 -2.7320081572925814e-01 0.0000000000000000e+00  7.1939507655787505e-01 -2.5351684942227337e-01 0.0000000000000000e+00  7.0329545181844100e-01 -2.3411000661665698e-01 0.0000000000000000e+00  7.3927859801832596e-01 -2.1722320348059787e-01 0.0000000000000000e+00  8.1381961563678307e-01 -1.9563299798649153e-01 0.0000000000000000e+00  9.0210484485748887e-01 -1.7085460036456684e-01 0.0000000000000000e+00  9.8164529829183511e-01 -1.3387996485172132e-01 0.0000000000000000e+00  1.0356043754256419e+00 -9.5279736335645779e-02 0.0000000000000000e+00  1.0652213846643204e+00 -5.7865612000799170e-02 0.0000000000000000e+00  1.0775517033742636e+00 -3.1887599061877131e-02 0.0000000000000000e+00  1.0836644592867728e+00 -1.5857054378042877e-02 0.0000000000000000e+00  1.0867053534097837e+00 -7.4088617796207006e-03 0.0000000000000000e+00  1.0888658033030065e+00 -3.2870257024859044e-03 0.0000000000000000e+00  1.0890535698347772e+00 -1.2299170075962542e-03 0.0000000000000000e+00  1.0896553956280270e+00 0.0000000000000000e+00 0.0000000000000000e+00  1.0907204667735375e+00 0.0000000000000000e+00 0.0000000000000000e+00  1.0908515350369232e+00 0.0000000000000000e+00 0.0000000000000000e+00  1.0896415641997441e+00 0.0000000000000000e+00 0.0000000000000000e+00  1.0860041120168025e+00 0.0000000000000000e+00 0.0000000000000000e+00  1.0814522241004521e+00 0.0000000000000000e+00 0.0000000000000000e+00  1.0764268595278785e+00 0.0000000000000000e+00 0.0000000000000000e+00  1.0718250723924281e+00 0.0000000000000000e+00 0.0000000000000000e+00  1.0678807481445358e+00 0.0000000000000000e+00 0.0000000000000000e+00  1.0660287566562046e+00 0.0000000000000000e+00 0.0000000000000000e+00  1.0661616959587366e+00 0.0000000000000000e+00 0.0000000000000000e+00  1.0676343765974909e+00 0.0000000000000000e+00 0.0000000000000000e+00  1.0700294625995797e+00 0.0000000000000000e+00 0.0000000000000000e+00  1.0728874308047980e+00 0.0000000000000000e+00 0.0000000000000000e+00  1.0739788696064865e+00 0.0000000000000000e+00 0.0000000000000000e+00  1.0744088685490552e+00 0.0000000000000000e+00 0.0000000000000000e+00  1.0717455298330218e+00 0.0000000000000000e+00 0.0000000000000000e+00  1.0681494009921733e+00 0.0000000000000000e+00 0.0000000000000000e+00  1.0635872410718985e+00 0.0000000000000000e+00 0.0000000000000000e+00  1.0596927639338012e+00 0.0000000000000000e+00 0.0000000000000000e+00  1.0567144246494795e+00 0.0000000000000000e+00 0.0000000000000000e+00  1.0550383726300607e+00 0.0000000000000000e+00 0.0000000000000000e+00  1.0559345116141285e+00 0.0000000000000000e+00 0.0000000000000000e+00  1.0610928703298572e+00 0.0000000000000000e+00 0.0000000000000000e+00  1.0647470061644042e+00 0.0000000000000000e+00 0.0000000000000000e+00  1.0663135531696568e+00 0.0000000000000000e+00 0.0000000000000000e+00  1.0677281330778758e+00 0.0000000000000000e+00 0.0000000000000000e+00  1.0679188161145892e+00 0.0000000000000000e+00 0.0000000000000000e+00  1.0649960364840483e+00 0.0000000000000000e+00 0.0000000000000000e+00  1.0588772929136852e+00 0.0000000000000000e+00 0.0000000000000000e+00  1.0548387020606220e+00 0.0000000000000000e+00 0.0000000000000000e+00  1.0513049472086344e+00 0.0000000000000000e+00 0.0000000000000000e+00  1.0484385041261153e+00 0.0000000000000000e+00 0.0000000000000000e+00  1.0482216032621041e+00 0.0000000000000000e+00 0.0000000000000000e+00  1.0500637388250689e+00 0.0000000000000000e+00 0.0000000000000000e+00  1.0528121765910856e+00 0.0000000000000000e+00 0.0000000000000000e+00  1.0571252107766513e+00 0.0000000000000000e+00 0.0000000000000000e+00  1.0610984595047317e+00 0.0000000000000000e+00 0.0000000000000000e+00  1.0629585710693803e+00 0.0000000000000000e+00 0.0000000000000000e+00  1.0639147645476330e+00 0.0000000000000000e+00 0.0000000000000000e+00  1.0623563535778087e+00 0.0000000000000000e+00 0.0000000000000000e+00  1.0577347199362075e+00 0.0000000000000000e+00 0.0000000000000000e+00  1.0527312723655393e+00 0.0000000000000000e+00 0.0000000000000000e+00  1.0472905565547797e+00 0.0000000000000000e+00 0.0000000000000000e+00  1.0416383083039833e+00 0.0000000000000000e+00 0.0000000000000000e+00  1.0394231711403392e+00 0.0000000000000000e+00 0.0000000000000000e+00  1.0394102711805657e+00 0.0000000000000000e+00 0.0000000000000000e+00  1.0411129045445178e+00 0.0000000000000000e+00 0.0000000000000000e+00  1.0452636281902070e+00 0.0000000000000000e+00 0.0000000000000000e+00  1.0507357337858674e+00 0.0000000000000000e+00 0.0000000000000000e+00  1.0560635184852103e+00 0.0000000000000000e+00 0.0000000000000000e+00  1.0610044255067894e+00 0.0000000000000000e+00 0.0000000000000000e+00  1.0642793347430115e+00 0.0000000000000000e+00 0.0000000000000000e+00  1.0651917497850565e+00 0.0000000000000000e+00 0.0000000000000000e+00  1.0647837691655082e+00 0.0000000000000000e+00 0.0000000000000000e+00  1.0618264160638657e+00 0.0000000000000000e+00 0.0000000000000000e+00  1.0587164450096385e+00 0.0000000000000000e+00 0.0000000000000000e+00  1.0570700805593682e+00 0.0000000000000000e+00 0.0000000000000000e+00  1.0567521866499656e+00 0.0000000000000000e+00 0.0000000000000000e+00  1.0579881550777053e+00 0.0000000000000000e+00 0.0000000000000000e+00  1.0610493347632413e+00 0.0000000000000000e+00 0.0000000000000000e+00  1.0663478228039998e+00 0.0000000000000000e+00 0.0000000000000000e+00  1.0736827611855297e+00 0.0000000000000000e+00 0.0000000000000000e+00  1.0807439808648303e+00 0.0000000000000000e+00 0.0000000000000000e+00  1.0870832351761417e+00 0.0000000000000000e+00 0.0000000000000000e+00  1.0936667323442715e+00 0.0000000000000000e+00 0.0000000000000000e+00  1.0966751602031308e+00 0.0000000000000000e+00 0.0000000000000000e+00  1.0983669481931269e+00 0.0000000000000000e+00 0.0000000000000000e+00  1.0973031797191093e+00 0.0000000000000000e+00 0.0000000000000000e+00  1.0934356956745639e+00 0.0000000000000000e+00 0.0000000000000000e+00  1.0877261948430781e+00 0.0000000000000000e+00 0.0000000000000000e+00  1.0808016934458773e+00 0.0000000000000000e+00 0.0000000000000000e+00  1.0729102772895935e+00 0.0000000000000000e+00 0.0000000000000000e+00  1.0637152266944345e+00 0.0000000000000000e+00 0.0000000000000000e+00  1.0554801204219946e+00 0.0000000000000000e+00 0.0000000000000000e+00  1.0468193332736835e+00 0.0000000000000000e+00 0.0000000000000000e+00  1.0310178746478804e+00 0.0000000000000000e+00 0.0000000000000000e+00  1.0244410063717642e+00 0.0000000000000000e+00 0.0000000000000000e+00  1.0192895008416680e+00 0.0000000000000000e+00 0.0000000000000000e+00  1.0147121659090903e+00 0.0000000000000000e+00 0.0000000000000000e+00  1.0109775723343213e+00 0.0000000000000000e+00 0.0000000000000000e+00  1.0080513437772385e+00 0.0000000000000000e+00 0.0000000000000000e+00  1.0058514279103878e+00 0.0000000000000000e+00 0.0000000000000000e+00  1.0037188284906411e+00 0.0000000000000000e+00 0.0000000000000000e+00  1.0023127168973680e+00 0.0000000000000000e+00 0.0000000000000000e+00  1.0013770175106513e+00 0.0000000000000000e+00 0.0000000000000000e+00  1.0003403765830614e+00 0.0000000000000000e+00 0.0000000000000000e+00  1.0003606949903132e+00 0.0000000000000000e+00 0.0000000000000000e+00  9.9951004284573874e-01 0.0000000000000000e+00 0.0000000000000000e+00  9.9968714410967485e-01 0.0000000000000000e+00 0.0000000000000000e+00  9.9947958806437021e-01 0.0000000000000000e+00 0.0000000000000000e+00  1.0003154069473259e+00 0.0000000000000000e+00 0.0000000000000000e+00  1.0001800671736223e+00 0.0000000000000000e+00 0.0000000000000000e+00  9.9978834751582957e-01 0.0000000000000000e+00 0.0000000000000000e+00  1.0000001326719821e+00 0.0000000000000000e+00 0.0000000000000000e+00  1.0000001326719821e+00 0.0000000000000000e+00 0.0000000000000000e+00  1.0000001326719821e+00 0.0000000000000000e+00 0.0000000000000000e+00  1.0000001326719821e+00 0.0000000000000000e+00 0.0000000000000000e+00  1.0000001326719821e+00 0.0000000000000000e+00 0.0000000000000000e+00  1.0000001326719821e+00 0.0000000000000000e+00 0.0000000000000000e+00  1.0000001326719821e+00 0.0000000000000000e+00 0.0000000000000000e+00  1.0000001326719821e+00 0.0000000000000000e+00 0.0000000000000000e+00  1.0000001326719821e+00 0.0000000000000000e+00 0.0000000000000000e+00  1.0000001326719821e+00 0.0000000000000000e+00 0.0000000000000000e+00  1.0000001326719821e+00 0.0000000000000000e+00 0.0000000000000000e+00  1.0000001326719821e+00 0.0000000000000000e+00 0.0000000000000000e+00  1.0000001326719821e+00 0.0000000000000000e+00 0.0000000000000000e+00  1.0000001326719821e+00 0.0000000000000000e+00 0.0000000000000000e+00  1.0000001326719821e+00 0.0000000000000000e+00 0.0000000000000000e+00  1.0000001326719821e+00 0.0000000000000000e+00 0.0000000000000000e+00  1.0000001326719821e+00 0.0000000000000000e+00 0.0000000000000000e+00  1.0000001326719821e+00 0.0000000000000000e+00 0.0000000000000000e+00  1.0000001326719821e+00 0.0000000000000000e+00 0.0000000000000000e+00  1.0000001326719821e+00 0.0000000000000000e+00 0.0000000000000000e+00  1.0418509658078052e+00 -9.0308413680292056e-03 0.0000000000000000e+00  1.0392957215964629e+00 -1.8348681496479394e-02 0.0000000000000000e+00  1.0377716642840131e+00 -2.8728938936791036e-02 0.0000000000000000e+00  1.0330501103635146e+00 -3.9782363869577800e-02 0.0000000000000000e+00  1.0286326037407150e+00 -5.4931698530397761e-02 0.0000000000000000e+00  1.0334057827375318e+00 -5.7865029245928935e-02 0.0000000000000000e+00  1.0377271949339215e+00 -6.0800658654617770e-02 0.0000000000000000e+00  1.0430865826320592e+00 -6.3320068690933165e-02 0.0000000000000000e+00  1.0486570166149434e+00 -6.5595194389033537e-02 0.0000000000000000e+00  1.0548207055331873e+00 -6.7323539501468674e-02 0.0000000000000000e+00  1.0615050022470740e+00 -6.8587212902430125e-02 0.0000000000000000e+00  1.0685317779201258e+00 -6.9055508715565914e-02 0.0000000000000000e+00  1.0759837176339879e+00 -6.8836336290322278e-02 0.0000000000000000e+00  1.0833857777198703e+00 -6.7588255495977662e-02 0.0000000000000000e+00  1.0909570642095476e+00 -6.5579355487678695e-02 0.0000000000000000e+00  1.0983222312232415e+00 -6.2705202250966124e-02 0.0000000000000000e+00  1.1055511789360202e+00 -5.8629382092005050e-02 0.0000000000000000e+00  1.1120965112747041e+00 -5.3521431654932818e-02 0.0000000000000000e+00  1.1179965468847035e+00 -4.7706979748265467e-02 0.0000000000000000e+00  1.1230785412106266e+00 -4.1085603440065580e-02 0.0000000000000000e+00  1.1270794877891483e+00 -3.3785911321377142e-02 0.0000000000000000e+00  1.1299506215831283e+00 -2.6017713799643322e-02 0.0000000000000000e+00  1.1316276400885901e+00 -1.8048653797250194e-02 0.0000000000000000e+00  1.1320417201298603e+00 -9.7854719306828281e-03 0.0000000000000000e+00  1.1311854099878522e+00 -1.9738750968317331e-03 0.0000000000000000e+00  1.1290798635718746e+00 5.7879234539967581e-03 0.0000000000000000e+00  1.1256339884911006e+00 1.3011464568219859e-02 0.0000000000000000e+00  1.1212719738914450e+00 1.9305003201394333e-02 0.0000000000000000e+00  1.1158103027841424e+00 2.4577081199849672e-02 0.0000000000000000e+00  1.1095868173145786e+00 2.8719312002505604e-02 0.0000000000000000e+00  1.1027648780457013e+00 3.1637250561910059e-02 0.0000000000000000e+00  1.0956176749453419e+00 3.3011851994254673e-02 0.0000000000000000e+00  1.0883274285304052e+00 3.3016338222403421e-02 0.0000000000000000e+00  1.0812603315857128e+00 3.1652093247359611e-02 0.0000000000000000e+00  1.0747453506399087e+00 2.8756829958883443e-02 0.0000000000000000e+00  1.0689367523730660e+00 2.46206