<?xml version="1.0"?>
<VTKFile type="UnstructuredGrid"  version="0.1"  >
<UnstructuredGrid>
<Piece  NumberOfPoints="10199" NumberOfCells="20110">
<Points>
<DataArray  type="Float64"  NumberOfComponents="3"  format="ascii">0 -5 0  8 -5 0  30 -5 0  40 -5 0  40 5 0  30 5 0  8 5 0  0 5 0  8 -2.5 0  15 -2.5 0  30 -2.5 0  30 2.5 0  15 2.5 0  8 2.5 0  10 0.5 0  10 -0.5 0  0 0 0  0.4210526315780956 -5 0  0.8421052631563433 -5 0  1.263157894734281 -5 0  1.684210526311999 -5 0  2.105263157889717 -5 0  2.526315789467435 -5 0  2.947368421045153 -5 0  3.368421052622872 -5 0  3.78947368420059 -5 0  4.210526315779479 -5 0  4.631578947359537 -5 0  5.052631578939595 -5 0  5.473684210519653 -5 0  5.89473684209971 -5 0  6.315789473679768 -5 0  6.736842105259826 -5 0  7.157894736839884 -5 0  7.578947368419942 -5 0  8.407407407405314 -5 0  8.814814814810628 -5 0  9.222222222215942 -5 0  9.629629629621256 -5 0  10.03703703702657 -5 0  10.44444444443188 -5 0  10.8518518518372 -5 0  11.25925925924251 -5 0  11.66666666664783 -5 0  12.07407407405314 -5 0  12.48148148145846 -5 0  12.88888888886377 -5 0  13.29629629626908 -5 0  13.7037037036744 -5 0  14.11111111107971 -5 0  14.51851851848502 -5 0  14.92592592589034 -5 0  15.33333333329565 -5 0  15.74074074070096 -5 0  16.14814814810754 -5 0  16.55555555551614 -5 0  16.96296296292474 -5 0  17.37037037033335 -5 0  17.77777777774195 -5 0  18.18518518515056 -5 0  18.59259259255916 -5 0  18.99999999996776 -5 0  19.40740740737636 -5 0  19.81481481478497 -5 0  20.22222222219357 -5 0  20.62962962960217 -5 0  21.03703703701077 -5 0  21.44444444441937 -5 0  21.85185185182797 -5 0  22.25925925923657 -5 0  22.66666666664518 -5 0  23.07407407405378 -5 0  23.48148148146238 -5 0  23.88888888887098 -5 0  24.29629629627958 -5 0  24.70370370368818 -5 0  25.11111111109678 -5 0  25.51851851850539 -5 0  25.92592592591399 -5 0  26.33333333332259 -5 0  26.74074074073119 -5 0  27.14814814813979 -5 0  27.55555555554839 -5 0  27.96296296295699 -5 0  28.3703703703656 -5 0  28.7777777777742 -5 0  29.1851851851828 -5 0  29.5925925925914 -5 0  30.41666666667852 -5 0  30.83333333335704 -5 0  31.25000000003556 -5 0  31.66666666671408 -5 0  32.08333333338936 -5 0  32.50000000005308 -5 0  32.9166666667168 -5 0  33.33333333338052 -5 0  33.75000000004424 -5 0  34.16666666670795 -5 0  34.58333333337167 -5 0  35.00000000003539 -5 0  35.41666666669911 -5 0  35.83333333336282 -5 0  36.25000000002654 -5 0  36.66666666669026 -5 0  37.08333333335398 -5 0  37.50000000001769 -5 0  37.91666666668141 -5 0  38.33333333334513 -5 0  38.75000000000885 -5 0  39.16666666667257 -5 0  39.58333333333628 -5 0  40 -4.583333333332821 0  40 -4.166666666665642 0  40 -3.74999999999855 0  40 -3.333333333333135 0  40 -2.916666666667806 0  40 -2.500000000002478 0  40 -2.083333333337148 0  40 -1.666666666671818 0  40 -1.250000000006488 0  40 -0.8333333333405228 0  40 -0.4166666666733416 0  40 -6.163070054299169e-12 0  40 0.4166666666610173 0  40 0.8333333333281976 0  40 1.249999999995378 0  40 1.666666666662558 0  40 2.083333333329739 0  40 2.499999999996919 0  40 2.916666666664099 0  40 3.33333333333128 0  40 3.74999999999846 0  40 4.166666666665641 0  40 4.583333333332821 0  39.58333333333628 5 0  39.16666666667256 5 0  38.75000000000885 5 0  38.33333333334513 5 0  37.91666666668141 5 0  37.50000000001769 5 0  37.08333333335398 5 0  36.66666666669025 5 0  36.25000000002654 5 0  35.83333333336282 5 0  35.41666666669911 5 0  35.00000000003539 5 0  34.58333333337167 5 0  34.16666666670795 5 0  33.75000000004424 5 0  33.33333333338052 5 0  32.9166666667168 5 0  32.50000000005308 5 0  32.08333333338936 5 0  31.66666666671408 5 0  31.25000000003556 5 0  30.83333333335704 5 0  30.41666666667852 5 0  29.59259259259259 5 0  29.18518518518519 5 0  28.77777777777778 5 0  28.37037037037037 5 0  27.96296296296296 5 0  27.55555555555556 5 0  27.14814814814815 5 0  26.74074074074074 5 0  26.33333333333333 5 0  25.92592592592593 5 0  25.51851851851852 5 0  25.11111111111111 5 0  24.7037037037037 5 0  24.2962962962963 5 0  23.88888888888889 5 0  23.48148148148148 5 0  23.07407407407408 5 0  22.66666666666667 5 0  22.25925925925926 5 0  21.85185185185185 5 0  21.44444444444445 5 0  21.03703703703704 5 0  20.62962962962963 5 0  20.22222222222222 5 0  19.81481481481482 5 0  19.40740740740741 5 0  19 5 0  18.5925925925926 5 0  18.18518518518519 5 0  17.77777777777778 5 0  17.37037037037037 5 0  16.96296296296296 5 0  16.55555555555556 5 0  16.14814814814815 5 0  15.74074074074074 5 0  15.33333333333333 5 0  14.92592592592593 5 0  14.51851851851852 5 0  14.11111111111111 5 0  13.70370370370371 5 0  13.2962962962963 5 0  12.88888888888889 5 0  12.48148148148148 5 0  12.07407407407408 5 0  11.66666666666667 5 0  11.25925925925926 5 0  10.85185185185185 5 0  10.44444444444445 5 0  10.03703703703704 5 0  9.629629629629633 5 0  9.222222222222221 5 0  8.814814814814817 5 0  8.407407407407408 5 0  7.5789473684193 5 0  7.157894736838599 5 0  6.73684210526082 5 0  6.315789473684795 5 0  5.894736842108769 5 0  5.473684210532742 5 0  5.052631578956715 5 0  4.631578947380689 5 0  4.210526315804662 5 0  3.789473684226299 5 0  3.368421052645599 5 0  2.947368421064898 5 0  2.526315789484198 5 0  2.105263157903499 5 0  1.6842105263228 5 0  1.2631578947421 5 0  0.8421052631613994 5 0  0.4210526315806993 5 0  0 4.545454545454545 0  0 4.09090909090909 0  0 3.636363636363634 0  0 3.18181818181818 0  0 2.727272727272726 0  0 2.272727272727271 0  0 1.818181818181817 0  0 1.363636363636363 0  0 0.9090909090909092 0  0 0.454545454545455 0  0 -0.4545454545450807 0  0 -0.9090909090895867 0  0 -1.363636363633713 0  0 -1.818181818177841 0  0 -2.272727272723127 0  0 -2.727272727269273 0  0 -3.181818181815419 0  0 -3.636363636361564 0  0 -4.090909090907709 0  0 -4.545454545453855 0  8 -4.499999999999999 0  8 -3.999999999999999 0  8 -3.499999999999999 0  8 -3 0  8.137254901963859 -2.5 0  8.274509803926303 -2.5 0  8.411764705886863 -2.5 0  8.549019607849138 -2.5 0  8.686274509809513 -2.5 0  8.82352941176989 -2.5 0  8.960784313730265 -2.5 0  9.098039215690642 -2.5 0  9.235294117651017 -2.5 0  9.372549019611395 -2.5 0  9.50980392157177 -2.5 0  9.647058823532147 -2.5 0  9.784313725492522 -2.5 0  9.921568627452897 -2.5 0  10.05882352941327 -2.5 0  10.19607843137365 -2.5 0  10.33333333333402 -2.5 0  10.4705882352944 -2.5 0  10.60784313725478 -2.5 0  10.74509803921515 -2.5 0  10.88235294117553 -2.5 0  11.0196078431359 -2.5 0  11.15686274509628 -2.5 0  11.29411764705665 -2.5 0  11.43137254901703 -2.5 0  11.56862745097915 -2.5 0  11.70588235294301 -2.5 0  11.84313725490686 -2.5 0  11.98039215687072 -2.5 0  12.11764705883209 -2.5 0  12.25490196079247 -2.5 0  12.39215686275285 -2.5 0  12.52941176471322 -2.5 0  12.6666666666736 -2.5 0  12.80392156863397 -2.5 0  12.94117647059435 -2.5 0  13.07843137255473 -2.5 0  13.2156862745151 -2.5 0  13.35294117647548 -2.5 0  13.49019607843586 -2.5 0  13.62745098039623 -2.5 0  13.76470588235661 -2.5 0  13.90196078431699 -2.5 0  14.03921568627736 -2.5 0  14.17647058823774 -2.5 0  14.31372549019812 -2.5 0  14.45098039215849 -2.5 0  14.58823529411887 -2.5 0  14.72549019607925 -2.5 0  14.86274509803962 -2.5 0  15.20270270270254 -2.5 0  15.40540540540509 -2.5 0  15.60810810810763 -2.5 0  15.81081081081017 -2.5 0  16.01351351351227 -2.5 0  16.21621621621265 -2.5 0  16.41891891891279 -2.5 0  16.62162162161294 -2.5 0  16.82432432431308 -2.5 0  17.02702702701322 -2.5 0  17.22972972971337 -2.5 0  17.43243243241351 -2.5 0  17.63513513511365 -2.5 0  17.83783783781379 -2.5 0  18.04054054051394 -2.5 0  18.24324324321408 -2.5 0  18.44594594591422 -2.5 0  18.64864864861436 -2.5 0  18.85135135131451 -2.5 0  19.05405405401465 -2.5 0  19.25675675671479 -2.5 0  19.45945945941494 -2.5 0  19.66216216211508 -2.5 0  19.86486486481522 -2.5 0  20.06756756751536 -2.5 0  20.27027027021551 -2.5 0  20.47297297291565 -2.5 0  20.6756756756158 -2.5 0  20.87837837831594 -2.5 0  21.08108108101608 -2.5 0  21.28378378371622 -2.5 0  21.48648648641637 -2.5 0  21.68918918911651 -2.5 0  21.89189189181666 -2.5 0  22.0945945945168 -2.5 0  22.29729729721694 -2.5 0  22.49999999991778 -2.5 0  22.70270270262203 -2.5 0  22.90540540532697 -2.5 0  23.10810810803191 -2.5 0  23.31081081073686 -2.5 0  23.5135135134418 -2.5 0  23.71621621614674 -2.5 0  23.91891891885169 -2.5 0  24.12162162155663 -2.5 0  24.32432432426158 -2.5 0  24.52702702696652 -2.5 0  24.72972972967146 -2.5 0  24.93243243237641 -2.5 0  25.13513513508135 -2.5 0  25.3378378377863 -2.5 0  25.54054054049124 -2.5 0  25.74324324319618 -2.5 0  25.94594594590112 -2.5 0  26.14864864860607 -2.5 0  26.35135135131101 -2.5 0  26.55405405401596 -2.5 0  26.7567567567209 -2.5 0  26.95945945942584 -2.5 0  27.16216216213079 -2.5 0  27.36486486483573 -2.5 0  27.56756756754068 -2.5 0  27.77027027024562 -2.5 0  27.97297297295056 -2.5 0  28.1756756756555 -2.5 0  28.37837837836045 -2.5 0  28.5810810810654 -2.5 0  28.78378378377034 -2.5 0  28.98648648647528 -2.5 0  29.18918918918023 -2.5 0  29.39189189188517 -2.5 0  29.59459459459011 -2.5 0  29.79729729729506 -2.5 0  30 -3.000000000000001 0  30 -3.500000000000001 0  30 -4.000000000000001 0  30 -4.5 0  8 4.499999999999999 0  8 3.999999999999999 0  8 3.499999999999999 0  8 3 0  8.137254901963859 2.5 0  8.274509803926303 2.5 0  8.411764705886863 2.5 0  8.549019607849138 2.5 0  8.686274509809513 2.5 0  8.82352941176989 2.5 0  8.960784313730265 2.5 0  9.098039215690642 2.5 0  9.235294117651017 2.5 0  9.372549019611395 2.5 0  9.50980392157177 2.5 0  9.647058823532147 2.5 0  9.784313725492522 2.5 0  9.921568627452897 2.5 0  10.05882352941327 2.5 0  10.19607843137365 2.5 0  10.33333333333402 2.5 0  10.4705882352944 2.5 0  10.60784313725478 2.5 0  10.74509803921515 2.5 0  10.88235294117553 2.5 0  11.0196078431359 2.5 0  11.15686274509628 2.5 0  11.29411764705665 2.5 0  11.43137254901703 2.5 0  11.56862745097915 2.5 0  11.70588235294301 2.5 0  11.84313725490686 2.5 0  11.98039215687072 2.5 0  12.11764705883209 2.5 0  12.25490196079247 2.5 0  1
[...]
<PointData  Vectors="f_17"> 
<DataArray  type="Float64"  Name="f_17"  NumberOfComponents="3" format="ascii">1.0000001326506522e+00 0.0000000000000000e+00 0.0000000000000000e+00  1.0388422198373257e+00 0.0000000000000000e+00 0.0000000000000000e+00  1.0600143028049971e+00 0.0000000000000000e+00 0.0000000000000000e+00  1.0848634612835713e+00 0.0000000000000000e+00 0.0000000000000000e+00  1.0796377371173413e+00 0.0000000000000000e+00 0.0000000000000000e+00  1.0543690866575772e+00 0.0000000000000000e+00 0.0000000000000000e+00  1.0420397250540852e+00 0.0000000000000000e+00 0.0000000000000000e+00  1.0000001326506522e+00 0.0000000000000000e+00 0.0000000000000000e+00  1.0184511505195415e+00 -4.9259439016412228e-02 0.0000000000000000e+00  1.0069771507909244e+00 6.8884607589996205e-02 0.0000000000000000e+00  1.0680268551371581e+00 7.6407599759047914e-02 0.0000000000000000e+00  1.0597020651231661e+00 8.6980255707235110e-02 0.0000000000000000e+00  1.1253357584325765e+00 3.1380816008331487e-02 0.0000000000000000e+00  1.0243259863017939e+00 5.2358107705659906e-02 0.0000000000000000e+00  0.0000000000000000e+00 0.0000000000000000e+00 0.0000000000000000e+00  0.0000000000000000e+00 0.0000000000000000e+00 0.0000000000000000e+00  1.0000001326506522e+00 0.0000000000000000e+00 0.0000000000000000e+00  9.9929899709668235e-01 0.0000000000000000e+00 0.0000000000000000e+00  9.9874050314460505e-01 0.0000000000000000e+00 0.0000000000000000e+00  1.0007625225950330e+00 0.0000000000000000e+00 0.0000000000000000e+00  1.0005077844856860e+00 0.0000000000000000e+00 0.0000000000000000e+00  1.0013590767923235e+00 0.0000000000000000e+00 0.0000000000000000e+00  1.0015162880592625e+00 0.0000000000000000e+00 0.0000000000000000e+00  1.0016159736521040e+00 0.0000000000000000e+00 0.0000000000000000e+00  1.0022292721264370e+00 0.0000000000000000e+00 0.0000000000000000e+00  1.0032319517517463e+00 0.0000000000000000e+00 0.0000000000000000e+00  1.0041611171920486e+00 0.0000000000000000e+00 0.0000000000000000e+00  1.0054391198789336e+00 0.0000000000000000e+00 0.0000000000000000e+00  1.0075125794231881e+00 0.0000000000000000e+00 0.0000000000000000e+00  1.0096958159531524e+00 0.0000000000000000e+00 0.0000000000000000e+00  1.0134608723168943e+00 0.0000000000000000e+00 0.0000000000000000e+00  1.0150101692674443e+00 0.0000000000000000e+00 0.0000000000000000e+00  1.0193584638261379e+00 0.0000000000000000e+00 0.0000000000000000e+00  1.0258800535648736e+00 0.0000000000000000e+00 0.0000000000000000e+00  1.0310900824533920e+00 0.0000000000000000e+00 0.0000000000000000e+00  1.0467320075872344e+00 0.0000000000000000e+00 0.0000000000000000e+00  1.0551780437742673e+00 0.0000000000000000e+00 0.0000000000000000e+00  1.0632195984858270e+00 0.0000000000000000e+00 0.0000000000000000e+00  1.0719090684969339e+00 0.0000000000000000e+00 0.0000000000000000e+00  1.0792978858698801e+00 0.0000000000000000e+00 0.0000000000000000e+00  1.0861307649103653e+00 0.0000000000000000e+00 0.0000000000000000e+00  1.0925495162906194e+00 0.0000000000000000e+00 0.0000000000000000e+00  1.0962314034113794e+00 0.0000000000000000e+00 0.0000000000000000e+00  1.0987125836971423e+00 0.0000000000000000e+00 0.0000000000000000e+00  1.0989184209852907e+00 0.0000000000000000e+00 0.0000000000000000e+00  1.0974177566559664e+00 0.0000000000000000e+00 0.0000000000000000e+00  1.0928228375856148e+00 0.0000000000000000e+00 0.0000000000000000e+00  1.0874710241529266e+00 0.0000000000000000e+00 0.0000000000000000e+00  1.0804933667768308e+00 0.0000000000000000e+00 0.0000000000000000e+00  1.0727270022863902e+00 0.0000000000000000e+00 0.0000000000000000e+00  1.0654624785427280e+00 0.0000000000000000e+00 0.0000000000000000e+00  1.0590298642298477e+00 0.0000000000000000e+00 0.0000000000000000e+00  1.0544209244724794e+00 0.0000000000000000e+00 0.0000000000000000e+00  1.0516485678933039e+00 0.0000000000000000e+00 0.0000000000000000e+00  1.0509117199486366e+00 0.0000000000000000e+00 0.0000000000000000e+00  1.0532635066956104e+00 0.0000000000000000e+00 0.0000000000000000e+00  1.0572158258849402e+00 0.0000000000000000e+00 0.0000000000000000e+00  1.0602234034063862e+00 0.0000000000000000e+00 0.0000000000000000e+00  1.0631673311459153e+00 0.0000000000000000e+00 0.0000000000000000e+00  1.0642406863579217e+00 0.0000000000000000e+00 0.0000000000000000e+00  1.0629727278469883e+00 0.0000000000000000e+00 0.0000000000000000e+00  1.0600306767904106e+00 0.0000000000000000e+00 0.0000000000000000e+00  1.0550628165906295e+00 0.0000000000000000e+00 0.0000000000000000e+00  1.0496330574878461e+00 0.0000000000000000e+00 0.0000000000000000e+00  1.0449844139444311e+00 0.0000000000000000e+00 0.0000000000000000e+00  1.0410838141770566e+00 0.0000000000000000e+00 0.0000000000000000e+00  1.0391545801296942e+00 0.0000000000000000e+00 0.0000000000000000e+00  1.0411993154994179e+00 0.0000000000000000e+00 0.0000000000000000e+00  1.0443412621970105e+00 0.0000000000000000e+00 0.0000000000000000e+00  1.0487805634211247e+00 0.0000000000000000e+00 0.0000000000000000e+00  1.0548102740418972e+00 0.0000000000000000e+00 0.0000000000000000e+00  1.0592720285708486e+00 0.0000000000000000e+00 0.0000000000000000e+00  1.0619156785559232e+00 0.0000000000000000e+00 0.0000000000000000e+00  1.0637255818247326e+00 0.0000000000000000e+00 0.0000000000000000e+00  1.0623491140282151e+00 0.0000000000000000e+00 0.0000000000000000e+00  1.0589470835976167e+00 0.0000000000000000e+00 0.0000000000000000e+00  1.0553953684819066e+00 0.0000000000000000e+00 0.0000000000000000e+00  1.0512598568353164e+00 0.0000000000000000e+00 0.0000000000000000e+00  1.0482298699852381e+00 0.0000000000000000e+00 0.0000000000000000e+00  1.0476191315800647e+00 0.0000000000000000e+00 0.0000000000000000e+00  1.0481082720350741e+00 0.0000000000000000e+00 0.0000000000000000e+00  1.0501396997597845e+00 0.0000000000000000e+00 0.0000000000000000e+00  1.0559756334101771e+00 0.0000000000000000e+00 0.0000000000000000e+00  1.0600334587700644e+00 0.0000000000000000e+00 0.0000000000000000e+00  1.0619013083642086e+00 0.0000000000000000e+00 0.0000000000000000e+00  1.0633494769689924e+00 0.0000000000000000e+00 0.0000000000000000e+00  1.0644670660927040e+00 0.0000000000000000e+00 0.0000000000000000e+00  1.0626746780868541e+00 0.0000000000000000e+00 0.0000000000000000e+00  1.0563178537449687e+00 0.0000000000000000e+00 0.0000000000000000e+00  1.0523962694427766e+00 0.0000000000000000e+00 0.0000000000000000e+00  1.0498094647451193e+00 0.0000000000000000e+00 0.0000000000000000e+00  1.0499381329913398e+00 0.0000000000000000e+00 0.0000000000000000e+00  1.0521961086623128e+00 0.0000000000000000e+00 0.0000000000000000e+00  1.0553988890018140e+00 0.0000000000000000e+00 0.0000000000000000e+00  1.0595417362200856e+00 0.0000000000000000e+00 0.0000000000000000e+00  1.0635669470655946e+00 0.0000000000000000e+00 0.0000000000000000e+00  1.0666304972648066e+00 0.0000000000000000e+00 0.0000000000000000e+00  1.0674172994624938e+00 0.0000000000000000e+00 0.0000000000000000e+00  1.0669424375459964e+00 0.0000000000000000e+00 0.0000000000000000e+00  1.0646545190535310e+00 0.0000000000000000e+00 0.0000000000000000e+00  1.0613706928037514e+00 0.0000000000000000e+00 0.0000000000000000e+00  1.0587257158114509e+00 0.0000000000000000e+00 0.0000000000000000e+00  1.0570749983651815e+00 0.0000000000000000e+00 0.0000000000000000e+00  1.0577387764377799e+00 0.0000000000000000e+00 0.0000000000000000e+00  1.0596985467720870e+00 0.0000000000000000e+00 0.0000000000000000e+00  1.0640814521212978e+00 0.0000000000000000e+00 0.0000000000000000e+00  1.0693851950617430e+00 0.0000000000000000e+00 0.0000000000000000e+00  1.0755826814406722e+00 0.0000000000000000e+00 0.0000000000000000e+00  1.0802952508635206e+00 0.0000000000000000e+00 0.0000000000000000e+00  1.0840071457365845e+00 0.0000000000000000e+00 0.0000000000000000e+00  1.0848498829566069e+00 0.0000000000000000e+00 0.0000000000000000e+00  1.0861394019331514e+00 1.2073763859597006e-03 0.0000000000000000e+00  1.0893678589752345e+00 3.2770410992221601e-03 0.0000000000000000e+00  1.0954317944708256e+00 7.5866459670658566e-03 0.0000000000000000e+00  1.1046705360883051e+00 1.6658497274060380e-02 0.0000000000000000e+00  1.1200926252422037e+00 3.5203875173608318e-02 0.0000000000000000e+00  1.1312754956690085e+00 6.4740140949210268e-02 0.0000000000000000e+00  1.1197254300469170e+00 1.1280391180306687e-01 0.0000000000000000e+00  1.0691268043899702e+00 1.6670890115109566e-01 0.0000000000000000e+00  9.7779952492741384e-01 2.2091364577356931e-01 0.0000000000000000e+00  8.6936264195979018e-01 2.5295310190647358e-01 0.0000000000000000e+00  7.7966812905304927e-01 2.7091608363994107e-01 0.0000000000000000e+00  7.3447501789336900e-01 2.7397586716227157e-01 0.0000000000000000e+00  7.4332023495190169e-01 2.7259496944420819e-01 0.0000000000000000e+00  7.9456495133137450e-01 2.7032710518557113e-01 0.0000000000000000e+00  8.7231049870187327e-01 2.5052653633516231e-01 0.0000000000000000e+00  9.4788245193375753e-01 2.0946339654103502e-01 0.0000000000000000e+00  1.0003118501497561e+00 1.5645773244149389e-01 0.0000000000000000e+00  1.0301111140743087e+00 1.0341625747798715e-01 0.0000000000000000e+00  1.0499162224671565e+00 6.8507900875519778e-02 0.0000000000000000e+00  1.0652326678464441e+00 4.4490800789866690e-02 0.0000000000000000e+00  1.0737673578136713e+00 2.8652805614857425e-02 0.0000000000000000e+00  1.0783726009053320e+00 1.7032543678192187e-02 0.0000000000000000e+00  1.0797352078081717e+00 7.8203172401525509e-03 0.0000000000000000e+00  1.0727880074021363e+00 0.0000000000000000e+00 0.0000000000000000e+00  1.0682710379138236e+00 0.0000000000000000e+00 0.0000000000000000e+00  1.0661279538296800e+00 0.0000000000000000e+00 0.0000000000000000e+00  1.0665375017633276e+00 0.0000000000000000e+00 0.0000000000000000e+00  1.0676185096080697e+00 0.0000000000000000e+00 0.0000000000000000e+00  1.0694688019901293e+00 0.0000000000000000e+00 0.0000000000000000e+00  1.0709621886011469e+00 0.0000000000000000e+00 0.0000000000000000e+00  1.0712359762588082e+00 0.0000000000000000e+00 0.0000000000000000e+00  1.0690666229670611e+00 0.0000000000000000e+00 0.0000000000000000e+00  1.0656567281047959e+00 0.0000000000000000e+00 0.0000000000000000e+00  1.0611275429364582e+00 0.0000000000000000e+00 0.0000000000000000e+00  1.0564107106800942e+00 0.0000000000000000e+00 0.0000000000000000e+00  1.0526986072960234e+00 0.0000000000000000e+00 0.0000000000000000e+00  1.0514150951047796e+00 0.0000000000000000e+00 0.0000000000000000e+00  1.0514279324631444e+00 0.0000000000000000e+00 0.0000000000000000e+00  1.0542611474956349e+00 0.0000000000000000e+00 0.0000000000000000e+00  1.0571090462333070e+00 0.0000000000000000e+00 0.0000000000000000e+00  1.0607753182012685e+00 0.0000000000000000e+00 0.0000000000000000e+00  1.0634236347570347e+00 0.0000000000000000e+00 0.0000000000000000e+00  1.0651379155927119e+00 0.0000000000000000e+00 0.0000000000000000e+00  1.0646491212165410e+00 0.0000000000000000e+00 0.0000000000000000e+00  1.0618447215227784e+00 0.0000000000000000e+00 0.0000000000000000e+00  1.0584506927614807e+00 0.0000000000000000e+00 0.0000000000000000e+00  1.0503441970250038e+00 0.0000000000000000e+00 0.0000000000000000e+00  1.0483029466840568e+00 0.0000000000000000e+00 0.0000000000000000e+00  1.0471115712534576e+00 0.0000000000000000e+00 0.0000000000000000e+00  1.0493558839016952e+00 0.0000000000000000e+00 0.0000000000000000e+00  1.0540570180866760e+00 0.0000000000000000e+00 0.0000000000000000e+00  1.0582386913236492e+00 0.0000000000000000e+00 0.0000000000000000e+00  1.0603789890524640e+00 0.0000000000000000e+00 0.0000000000000000e+00  1.0634886711076832e+00 0.0000000000000000e+00 0.0000000000000000e+00  1.0644496252624340e+00 0.0000000000000000e+00 0.0000000000000000e+00  1.0623848955933135e+00 0.0000000000000000e+00 0.0000000000000000e+00  1.0590280152438443e+00 0.0000000000000000e+00 0.0000000000000000e+00  1.0544888845887399e+00 0.0000000000000000e+00 0.0000000000000000e+00  1.0491255519837674e+00 0.0000000000000000e+00 0.0000000000000000e+00  1.0455277476211706e+00 0.0000000000000000e+00 0.0000000000000000e+00  1.0435905216606476e+00 0.0000000000000000e+00 0.0000000000000000e+00  1.0428737643807693e+00 0.0000000000000000e+00 0.0000000000000000e+00  1.0455789414453429e+00 0.0000000000000000e+00 0.0000000000000000e+00  1.0497769708848141e+00 0.0000000000000000e+00 0.0000000000000000e+00  1.0538477396528250e+00 0.0000000000000000e+00 0.0000000000000000e+00  1.0584227445969085e+00 0.0000000000000000e+00 0.0000000000000000e+00  1.0614196536275333e+00 0.0000000000000000e+00 0.0000000000000000e+00  1.0611933051093527e+00 0.0000000000000000e+00 0.0000000000000000e+00  1.0598802730286321e+00 0.0000000000000000e+00 0.0000000000000000e+00  1.0563826733895088e+00 0.0000000000000000e+00 0.0000000000000000e+00  1.0506847162946795e+00 0.0000000000000000e+00 0.0000000000000000e+00  1.0453695648752317e+00 0.0000000000000000e+00 0.0000000000000000e+00  1.0410490889611788e+00 0.0000000000000000e+00 0.0000000000000000e+00  1.0383502339903687e+00 0.0000000000000000e+00 0.0000000000000000e+00  1.0384770296620616e+00 0.0000000000000000e+00 0.0000000000000000e+00  1.0411748460112566e+00 0.0000000000000000e+00 0.0000000000000000e+00  1.0456376596134225e+00 0.0000000000000000e+00 0.0000000000000000e+00  1.0522689107755412e+00 0.0000000000000000e+00 0.0000000000000000e+00  1.0581205710537480e+00 0.0000000000000000e+00 0.0000000000000000e+00  1.0638997900358378e+00 0.0000000000000000e+00 0.0000000000000000e+00  1.0692425044534348e+00 0.0000000000000000e+00 0.0000000000000000e+00  1.0728357435639837e+00 0.0000000000000000e+00 0.0000000000000000e+00  1.0743966706042505e+00 0.0000000000000000e+00 0.0000000000000000e+00  1.0744108554160994e+00 0.0000000000000000e+00 0.0000000000000000e+00  1.0744002564455890e+00 0.0000000000000000e+00 0.0000000000000000e+00  1.0753850017459898e+00 0.0000000000000000e+00 0.0000000000000000e+00  1.0762728983087035e+00 0.0000000000000000e+00 0.0000000000000000e+00  1.0778603410424914e+00 0.0000000000000000e+00 0.0000000000000000e+00  1.0814960860898135e+00 0.0000000000000000e+00 0.0000000000000000e+00  1.0836094279249662e+00 0.0000000000000000e+00 0.0000000000000000e+00  1.0860680964223561e+00 0.0000000000000000e+00 0.0000000000000000e+00  1.0870392482492581e+00 0.0000000000000000e+00 0.0000000000000000e+00  1.0857661054585339e+00 0.0000000000000000e+00 0.0000000000000000e+00  1.0828300342750385e+00 0.0000000000000000e+00 0.0000000000000000e+00  1.0784800631975286e+00 0.0000000000000000e+00 0.0000000000000000e+00  1.0726650192707683e+00 0.0000000000000000e+00 0.0000000000000000e+00  1.0650663951647292e+00 0.0000000000000000e+00 0.0000000000000000e+00  1.0578796520216467e+00 0.0000000000000000e+00 0.0000000000000000e+00  1.0498465699905009e+00 0.0000000000000000e+00 0.0000000000000000e+00  1.0344110276676421e+00 0.0000000000000000e+00 0.0000000000000000e+00  1.0277491312251323e+00 0.0000000000000000e+00 0.0000000000000000e+00  1.0224639998333274e+00 0.0000000000000000e+00 0.0000000000000000e+00  1.0177207401759092e+00 0.0000000000000000e+00 0.0000000000000000e+00  1.0138432534296400e+00 0.0000000000000000e+00 0.0000000000000000e+00  1.0107748770523484e+00 0.0000000000000000e+00 0.0000000000000000e+00  1.0084178933971586e+00 0.0000000000000000e+00 0.0000000000000000e+00  1.0061185626699345e+00 0.0000000000000000e+00 0.0000000000000000e+00  1.0044813997320512e+00 0.0000000000000000e+00 0.0000000000000000e+00  1.0032966659735736e+00 0.0000000000000000e+00 0.0000000000000000e+00  1.0019463698298385e+00 0.0000000000000000e+00 0.0000000000000000e+00  1.0016374625540228e+00 0.0000000000000000e+00 0.0000000000000000e+00  1.0004403290661326e+00 0.0000000000000000e+00 0.0000000000000000e+00  1.0003126184266762e+00 0.0000000000000000e+00 0.0000000000000000e+00  9.9984477153923923e-01 0.0000000000000000e+00 0.0000000000000000e+00  1.0004862311921148e+00 0.0000000000000000e+00 0.0000000000000000e+00  1.0002378384281367e+00 0.0000000000000000e+00 0.0000000000000000e+00  9.9979419394803981e-01 0.0000000000000000e+00 0.0000000000000000e+00  1.0000001326506522e+00 0.0000000000000000e+00 0.0000000000000000e+00  1.0000001326506522e+00 0.0000000000000000e+00 0.0000000000000000e+00  1.0000001326506522e+00 0.0000000000000000e+00 0.0000000000000000e+00  1.0000001326506522e+00 0.0000000000000000e+00 0.0000000000000000e+00  1.0000001326506522e+00 0.0000000000000000e+00 0.0000000000000000e+00  1.0000001326506522e+00 0.0000000000000000e+00 0.0000000000000000e+00  1.0000001326506522e+00 0.0000000000000000e+00 0.0000000000000000e+00  1.0000001326506522e+00 0.0000000000000000e+00 0.0000000000000000e+00  1.0000001326506522e+00 0.0000000000000000e+00 0.0000000000000000e+00  1.0000001326506522e+00 0.0000000000000000e+00 0.0000000000000000e+00  1.0000001326506522e+00 0.0000000000000000e+00 0.0000000000000000e+00  1.0000001326506522e+00 0.0000000000000000e+00 0.0000000000000000e+00  1.0000001326506522e+00 0.0000000000000000e+00 0.0000000000000000e+00  1.0000001326506522e+00 0.0000000000000000e+00 0.0000000000000000e+00  1.0000001326506522e+00 0.0000000000000000e+00 0.0000000000000000e+00  1.0000001326506522e+00 0.0000000000000000e+00 0.0000000000000000e+00  1.0000001326506522e+00 0.0000000000000000e+00 0.0000000000000000e+00  1.0000001326506522e+00 0.0000000000000000e+00 0.0000000000000000e+00  1.0000001326506522e+00 0.0000000000000000e+00 0.0000000000000000e+00  1.0000001326506522e+00 0.0000000000000000e+00 0.0000000000000000e+00  1.0381924850449349e+00 -9.1626292117822691e-03 0.0000000000000000e+00  1.0350951189810498e+00 -1.8485645020377073e-02 0.0000000000000000e+00  1.0327363071491213e+00 -2.8501931250647469e-02 0.0000000000000000e+00  1.0269126567246214e+00 -3.8834366018691988e-02 0.0000000000000000e+00  1.0209497199781581e+00 -5.2859931302488158e-02 0.0000000000000000e+00  1.0251793636871596e+00 -5.6132140743196959e-02 0.0000000000000000e+00  1.0289865792359101e+00 -5.9482697705899597e-02 0.0000000000000000e+00  1.0337782547304379e+00 -6.2529919469940493e-02 0.0000000000000000e+00  1.0387905287216064e+00 -6.5438817815013040e-02 0.0000000000000000e+00  1.0443793866766975e+00 -6.7931443927723129e-02 0.0000000000000000e+00  1.0504947289568671e+00 -7.0090449894033291e-02 0.0000000000000000e+00  1.0569630721414611e+00 -7.1613593685558988e-02 0.0000000000000000e+00  1.0638813310819575e+00 -7.2609678143273959e-02 0.0000000000000000e+00  1.0708053936856607e+00 -7.2765470452281489e-02 0.0000000000000000e+00  1.0779570425009359e+00 -7.2348994505280026e-02 0.0000000000000000e+00  1.0849951232011132e+00 -7.1275463075333861e-02 0.0000000000000000e+00  1.0920200717427506e+00 -6.9232709524503971e-02 0.0000000000000000e+00  1.0985484890663189e+00 -6.6404373191353672e-02 0.0000000000000000e+00  1.1046457466988300e+00 -6.3112250290118091e-02 0.0000000000000000e+00  1.1101965381070915e+00 -5.9256845404904092e-02 0.0000000000000000e+00  1.1150590167183607e+00 -5.5013580058066266e-02 0.0000000000000000e+00  1.1192020497388768e+00 -5.0486081255508415e-02 0.0000000000000000e+00  1.1227631345924649e+00 -4.5951613266194104e-02 0.0000000000000000e+00  1.1256825334536364e+00 -4.1275798948408736e-02 0.0000000000000000e+00  1.1280946913755614e+00 -3.6978106751797690e-02 0.0000000000000000e+00  1.1300754260130361e+00 -3.2579482007677053e-02 0.0000000000000000e+00  1.1317449266100816e+00 -2.8463037426616825e-02 0.0000000000000000e+00  1.1333369847923034e+00 -2.4674553278753602e-02 0.0000000000000000e+00  1.1348559732655952e+00 -2.1061807486071740e-02 0.0000000000000000e+00  1.1364013062399079e+00 -1.7520193481704364e-02 0.0000000000000000e+00  1.1380479688938567e+00 -1.3843041111395539e-02 0.0000000000000000e+00  1.1398449317217698e+00 -9.9990077264101272e-03 0.0000000000000000e+00  1.1416454582601667e+00 -5.7628683119895496e-03 0.0000000000000000e+00  1.1434895307353266e+00 -1.0160520673944838e-03 0.0000000000000000e+00  1.1451280139209614e+00 4.3149981851846597e-03 0.0000000000000000e+00  1.1464147826470854e+00 1.0340906176689306e-02 0