<?xml version="1.0"?>
<VTKFile type="UnstructuredGrid"  version="0.1"  >
<UnstructuredGrid>
<Piece  NumberOfPoints="10199" NumberOfCells="20110">
<Points>
<DataArray  type="Float64"  NumberOfComponents="3"  format="ascii">0 -5 0  8 -5 0  30 -5 0  40 -5 0  40 5 0  30 5 0  8 5 0  0 5 0  8 -2.5 0  15 -2.5 0  30 -2.5 0  30 2.5 0  15 2.5 0  8 2.5 0  10 0.5 0  10 -0.5 0  0 0 0  0.4210526315780956 -5 0  0.8421052631563433 -5 0  1.263157894734281 -5 0  1.684210526311999 -5 0  2.105263157889717 -5 0  2.526315789467435 -5 0  2.947368421045153 -5 0  3.368421052622872 -5 0  3.78947368420059 -5 0  4.210526315779479 -5 0  4.631578947359537 -5 0  5.052631578939595 -5 0  5.473684210519653 -5 0  5.89473684209971 -5 0  6.315789473679768 -5 0  6.736842105259826 -5 0  7.157894736839884 -5 0  7.578947368419942 -5 0  8.407407407405314 -5 0  8.814814814810628 -5 0  9.222222222215942 -5 0  9.629629629621256 -5 0  10.03703703702657 -5 0  10.44444444443188 -5 0  10.8518518518372 -5 0  11.25925925924251 -5 0  11.66666666664783 -5 0  12.07407407405314 -5 0  12.48148148145846 -5 0  12.88888888886377 -5 0  13.29629629626908 -5 0  13.7037037036744 -5 0  14.11111111107971 -5 0  14.51851851848502 -5 0  14.92592592589034 -5 0  15.33333333329565 -5 0  15.74074074070096 -5 0  16.14814814810754 -5 0  16.55555555551614 -5 0  16.96296296292474 -5 0  17.37037037033335 -5 0  17.77777777774195 -5 0  18.18518518515056 -5 0  18.59259259255916 -5 0  18.99999999996776 -5 0  19.40740740737636 -5 0  19.81481481478497 -5 0  20.22222222219357 -5 0  20.62962962960217 -5 0  21.03703703701077 -5 0  21.44444444441937 -5 0  21.85185185182797 -5 0  22.25925925923657 -5 0  22.66666666664518 -5 0  23.07407407405378 -5 0  23.48148148146238 -5 0  23.88888888887098 -5 0  24.29629629627958 -5 0  24.70370370368818 -5 0  25.11111111109678 -5 0  25.51851851850539 -5 0  25.92592592591399 -5 0  26.33333333332259 -5 0  26.74074074073119 -5 0  27.14814814813979 -5 0  27.55555555554839 -5 0  27.96296296295699 -5 0  28.3703703703656 -5 0  28.7777777777742 -5 0  29.1851851851828 -5 0  29.5925925925914 -5 0  30.41666666667852 -5 0  30.83333333335704 -5 0  31.25000000003556 -5 0  31.66666666671408 -5 0  32.08333333338936 -5 0  32.50000000005308 -5 0  32.9166666667168 -5 0  33.33333333338052 -5 0  33.75000000004424 -5 0  34.16666666670795 -5 0  34.58333333337167 -5 0  35.00000000003539 -5 0  35.41666666669911 -5 0  35.83333333336282 -5 0  36.25000000002654 -5 0  36.66666666669026 -5 0  37.08333333335398 -5 0  37.50000000001769 -5 0  37.91666666668141 -5 0  38.33333333334513 -5 0  38.75000000000885 -5 0  39.16666666667257 -5 0  39.58333333333628 -5 0  40 -4.583333333332821 0  40 -4.166666666665642 0  40 -3.74999999999855 0  40 -3.333333333333135 0  40 -2.916666666667806 0  40 -2.500000000002478 0  40 -2.083333333337148 0  40 -1.666666666671818 0  40 -1.250000000006488 0  40 -0.8333333333405228 0  40 -0.4166666666733416 0  40 -6.163070054299169e-12 0  40 0.4166666666610173 0  40 0.8333333333281976 0  40 1.249999999995378 0  40 1.666666666662558 0  40 2.083333333329739 0  40 2.499999999996919 0  40 2.916666666664099 0  40 3.33333333333128 0  40 3.74999999999846 0  40 4.166666666665641 0  40 4.583333333332821 0  39.58333333333628 5 0  39.16666666667256 5 0  38.75000000000885 5 0  38.33333333334513 5 0  37.91666666668141 5 0  37.50000000001769 5 0  37.08333333335398 5 0  36.66666666669025 5 0  36.25000000002654 5 0  35.83333333336282 5 0  35.41666666669911 5 0  35.00000000003539 5 0  34.58333333337167 5 0  34.16666666670795 5 0  33.75000000004424 5 0  33.33333333338052 5 0  32.9166666667168 5 0  32.50000000005308 5 0  32.08333333338936 5 0  31.66666666671408 5 0  31.25000000003556 5 0  30.83333333335704 5 0  30.41666666667852 5 0  29.59259259259259 5 0  29.18518518518519 5 0  28.77777777777778 5 0  28.37037037037037 5 0  27.96296296296296 5 0  27.55555555555556 5 0  27.14814814814815 5 0  26.74074074074074 5 0  26.33333333333333 5 0  25.92592592592593 5 0  25.51851851851852 5 0  25.11111111111111 5 0  24.7037037037037 5 0  24.2962962962963 5 0  23.88888888888889 5 0  23.48148148148148 5 0  23.07407407407408 5 0  22.66666666666667 5 0  22.25925925925926 5 0  21.85185185185185 5 0  21.44444444444445 5 0  21.03703703703704 5 0  20.62962962962963 5 0  20.22222222222222 5 0  19.81481481481482 5 0  19.40740740740741 5 0  19 5 0  18.5925925925926 5 0  18.18518518518519 5 0  17.77777777777778 5 0  17.37037037037037 5 0  16.96296296296296 5 0  16.55555555555556 5 0  16.14814814814815 5 0  15.74074074074074 5 0  15.33333333333333 5 0  14.92592592592593 5 0  14.51851851851852 5 0  14.11111111111111 5 0  13.70370370370371 5 0  13.2962962962963 5 0  12.88888888888889 5 0  12.48148148148148 5 0  12.07407407407408 5 0  11.66666666666667 5 0  11.25925925925926 5 0  10.85185185185185 5 0  10.44444444444445 5 0  10.03703703703704 5 0  9.629629629629633 5 0  9.222222222222221 5 0  8.814814814814817 5 0  8.407407407407408 5 0  7.5789473684193 5 0  7.157894736838599 5 0  6.73684210526082 5 0  6.315789473684795 5 0  5.894736842108769 5 0  5.473684210532742 5 0  5.052631578956715 5 0  4.631578947380689 5 0  4.210526315804662 5 0  3.789473684226299 5 0  3.368421052645599 5 0  2.947368421064898 5 0  2.526315789484198 5 0  2.105263157903499 5 0  1.6842105263228 5 0  1.2631578947421 5 0  0.8421052631613994 5 0  0.4210526315806993 5 0  0 4.545454545454545 0  0 4.09090909090909 0  0 3.636363636363634 0  0 3.18181818181818 0  0 2.727272727272726 0  0 2.272727272727271 0  0 1.818181818181817 0  0 1.363636363636363 0  0 0.9090909090909092 0  0 0.454545454545455 0  0 -0.4545454545450807 0  0 -0.9090909090895867 0  0 -1.363636363633713 0  0 -1.818181818177841 0  0 -2.272727272723127 0  0 -2.727272727269273 0  0 -3.181818181815419 0  0 -3.636363636361564 0  0 -4.090909090907709 0  0 -4.545454545453855 0  8 -4.499999999999999 0  8 -3.999999999999999 0  8 -3.499999999999999 0  8 -3 0  8.137254901963859 -2.5 0  8.274509803926303 -2.5 0  8.411764705886863 -2.5 0  8.549019607849138 -2.5 0  8.686274509809513 -2.5 0  8.82352941176989 -2.5 0  8.960784313730265 -2.5 0  9.098039215690642 -2.5 0  9.235294117651017 -2.5 0  9.372549019611395 -2.5 0  9.50980392157177 -2.5 0  9.647058823532147 -2.5 0  9.784313725492522 -2.5 0  9.921568627452897 -2.5 0  10.05882352941327 -2.5 0  10.19607843137365 -2.5 0  10.33333333333402 -2.5 0  10.4705882352944 -2.5 0  10.60784313725478 -2.5 0  10.74509803921515 -2.5 0  10.88235294117553 -2.5 0  11.0196078431359 -2.5 0  11.15686274509628 -2.5 0  11.29411764705665 -2.5 0  11.43137254901703 -2.5 0  11.56862745097915 -2.5 0  11.70588235294301 -2.5 0  11.84313725490686 -2.5 0  11.98039215687072 -2.5 0  12.11764705883209 -2.5 0  12.25490196079247 -2.5 0  12.39215686275285 -2.5 0  12.52941176471322 -2.5 0  12.6666666666736 -2.5 0  12.80392156863397 -2.5 0  12.94117647059435 -2.5 0  13.07843137255473 -2.5 0  13.2156862745151 -2.5 0  13.35294117647548 -2.5 0  13.49019607843586 -2.5 0  13.62745098039623 -2.5 0  13.76470588235661 -2.5 0  13.90196078431699 -2.5 0  14.03921568627736 -2.5 0  14.17647058823774 -2.5 0  14.31372549019812 -2.5 0  14.45098039215849 -2.5 0  14.58823529411887 -2.5 0  14.72549019607925 -2.5 0  14.86274509803962 -2.5 0  15.20270270270254 -2.5 0  15.40540540540509 -2.5 0  15.60810810810763 -2.5 0  15.81081081081017 -2.5 0  16.01351351351227 -2.5 0  16.21621621621265 -2.5 0  16.41891891891279 -2.5 0  16.62162162161294 -2.5 0  16.82432432431308 -2.5 0  17.02702702701322 -2.5 0  17.22972972971337 -2.5 0  17.43243243241351 -2.5 0  17.63513513511365 -2.5 0  17.83783783781379 -2.5 0  18.04054054051394 -2.5 0  18.24324324321408 -2.5 0  18.44594594591422 -2.5 0  18.64864864861436 -2.5 0  18.85135135131451 -2.5 0  19.05405405401465 -2.5 0  19.25675675671479 -2.5 0  19.45945945941494 -2.5 0  19.66216216211508 -2.5 0  19.86486486481522 -2.5 0  20.06756756751536 -2.5 0  20.27027027021551 -2.5 0  20.47297297291565 -2.5 0  20.6756756756158 -2.5 0  20.87837837831594 -2.5 0  21.08108108101608 -2.5 0  21.28378378371622 -2.5 0  21.48648648641637 -2.5 0  21.68918918911651 -2.5 0  21.89189189181666 -2.5 0  22.0945945945168 -2.5 0  22.29729729721694 -2.5 0  22.49999999991778 -2.5 0  22.70270270262203 -2.5 0  22.90540540532697 -2.5 0  23.10810810803191 -2.5 0  23.31081081073686 -2.5 0  23.5135135134418 -2.5 0  23.71621621614674 -2.5 0  23.91891891885169 -2.5 0  24.12162162155663 -2.5 0  24.32432432426158 -2.5 0  24.52702702696652 -2.5 0  24.72972972967146 -2.5 0  24.93243243237641 -2.5 0  25.13513513508135 -2.5 0  25.3378378377863 -2.5 0  25.54054054049124 -2.5 0  25.74324324319618 -2.5 0  25.94594594590112 -2.5 0  26.14864864860607 -2.5 0  26.35135135131101 -2.5 0  26.55405405401596 -2.5 0  26.7567567567209 -2.5 0  26.95945945942584 -2.5 0  27.16216216213079 -2.5 0  27.36486486483573 -2.5 0  27.56756756754068 -2.5 0  27.77027027024562 -2.5 0  27.97297297295056 -2.5 0  28.1756756756555 -2.5 0  28.37837837836045 -2.5 0  28.5810810810654 -2.5 0  28.78378378377034 -2.5 0  28.98648648647528 -2.5 0  29.18918918918023 -2.5 0  29.39189189188517 -2.5 0  29.59459459459011 -2.5 0  29.79729729729506 -2.5 0  30 -3.000000000000001 0  30 -3.500000000000001 0  30 -4.000000000000001 0  30 -4.5 0  8 4.499999999999999 0  8 3.999999999999999 0  8 3.499999999999999 0  8 3 0  8.137254901963859 2.5 0  8.274509803926303 2.5 0  8.411764705886863 2.5 0  8.549019607849138 2.5 0  8.686274509809513 2.5 0  8.82352941176989 2.5 0  8.960784313730265 2.5 0  9.098039215690642 2.5 0  9.235294117651017 2.5 0  9.372549019611395 2.5 0  9.50980392157177 2.5 0  9.647058823532147 2.5 0  9.784313725492522 2.5 0  9.921568627452897 2.5 0  10.05882352941327 2.5 0  10.19607843137365 2.5 0  10.33333333333402 2.5 0  10.4705882352944 2.5 0  10.60784313725478 2.5 0  10.74509803921515 2.5 0  10.88235294117553 2.5 0  11.0196078431359 2.5 0  11.15686274509628 2.5 0  11.29411764705665 2.5 0  11.43137254901703 2.5 0  11.56862745097915 2.5 0  11.70588235294301 2.5 0  11.84313725490686 2.5 0  11.98039215687072 2.5 0  12.11764705883209 2.5 0  12.25490196079247 2.5 0  1
[...]
<PointData  Vectors="f_17"> 
<DataArray  type="Float64"  Name="f_17"  NumberOfComponents="3" format="ascii">1.0000001294407581e+00 0.0000000000000000e+00 0.0000000000000000e+00  1.0481634428054729e+00 0.0000000000000000e+00 0.0000000000000000e+00  1.0743383945999796e+00 0.0000000000000000e+00 0.0000000000000000e+00  1.0254418046373022e+00 0.0000000000000000e+00 0.0000000000000000e+00  1.0276536205979920e+00 0.0000000000000000e+00 0.0000000000000000e+00  1.0901766366245866e+00 0.0000000000000000e+00 0.0000000000000000e+00  1.0462471000055689e+00 0.0000000000000000e+00 0.0000000000000000e+00  1.0000001294407581e+00 0.0000000000000000e+00 0.0000000000000000e+00  1.0230589184687611e+00 -5.8689559748141731e-02 0.0000000000000000e+00  1.1595234011888436e+00 -2.2410523906502652e-02 0.0000000000000000e+00  1.0350495229034247e+00 6.5933722305818246e-02 0.0000000000000000e+00  1.1475929332009294e+00 5.1385097752169200e-02 0.0000000000000000e+00  1.0815560485879578e+00 -7.4702697710464727e-02 0.0000000000000000e+00  1.0206416292208542e+00 5.7741418174373678e-02 0.0000000000000000e+00  0.0000000000000000e+00 0.0000000000000000e+00 0.0000000000000000e+00  0.0000000000000000e+00 0.0000000000000000e+00 0.0000000000000000e+00  1.0000001294407581e+00 0.0000000000000000e+00 0.0000000000000000e+00  9.9932126709554825e-01 0.0000000000000000e+00 0.0000000000000000e+00  9.9879121096549017e-01 0.0000000000000000e+00 0.0000000000000000e+00  1.0008485337009794e+00 0.0000000000000000e+00 0.0000000000000000e+00  1.0007177603727830e+00 0.0000000000000000e+00 0.0000000000000000e+00  1.0017345842201788e+00 0.0000000000000000e+00 0.0000000000000000e+00  1.0021192341321892e+00 0.0000000000000000e+00 0.0000000000000000e+00  1.0025018985092418e+00 0.0000000000000000e+00 0.0000000000000000e+00  1.0034296820897064e+00 0.0000000000000000e+00 0.0000000000000000e+00  1.0047752013671969e+00 0.0000000000000000e+00 0.0000000000000000e+00  1.0060768025869056e+00 0.0000000000000000e+00 0.0000000000000000e+00  1.0077472185321410e+00 0.0000000000000000e+00 0.0000000000000000e+00  1.0102294377271006e+00 0.0000000000000000e+00 0.0000000000000000e+00  1.0128905575096101e+00 0.0000000000000000e+00 0.0000000000000000e+00  1.0172133038250226e+00 0.0000000000000000e+00 0.0000000000000000e+00  1.0194985787815019e+00 0.0000000000000000e+00 0.0000000000000000e+00  1.0247394836701034e+00 0.0000000000000000e+00 0.0000000000000000e+00  1.0323061313575255e+00 0.0000000000000000e+00 0.0000000000000000e+00  1.0387892562995180e+00 0.0000000000000000e+00 0.0000000000000000e+00  1.0578220819118600e+00 0.0000000000000000e+00 0.0000000000000000e+00  1.0682382422707126e+00 0.0000000000000000e+00 0.0000000000000000e+00  1.0784324419053850e+00 0.0000000000000000e+00 0.0000000000000000e+00  1.0894369859790212e+00 0.0000000000000000e+00 0.0000000000000000e+00  1.0990794205164407e+00 0.0000000000000000e+00 0.0000000000000000e+00  1.1080996020662548e+00 0.0000000000000000e+00 0.0000000000000000e+00  1.1165637287540859e+00 0.0000000000000000e+00 0.0000000000000000e+00  1.1222007022170948e+00 0.0000000000000000e+00 0.0000000000000000e+00  1.1266580341386825e+00 0.0000000000000000e+00 0.0000000000000000e+00  1.1292551493781520e+00 0.0000000000000000e+00 0.0000000000000000e+00  1.1308205395859692e+00 0.0000000000000000e+00 0.0000000000000000e+00  1.1304463478536790e+00 0.0000000000000000e+00 0.0000000000000000e+00  1.1306076464905579e+00 0.0000000000000000e+00 0.0000000000000000e+00  1.1302684336414430e+00 0.0000000000000000e+00 0.0000000000000000e+00  1.1297529365808190e+00 0.0000000000000000e+00 0.0000000000000000e+00  1.1293496089946964e+00 0.0000000000000000e+00 0.0000000000000000e+00  1.1282224661772584e+00 0.0000000000000000e+00 0.0000000000000000e+00  1.1261358278897249e+00 0.0000000000000000e+00 0.0000000000000000e+00  1.1221634803460476e+00 0.0000000000000000e+00 0.0000000000000000e+00  1.1163235666771856e+00 0.0000000000000000e+00 0.0000000000000000e+00  1.1100792999613918e+00 0.0000000000000000e+00 0.0000000000000000e+00  1.1035046602543723e+00 0.0000000000000000e+00 0.0000000000000000e+00  1.0954648480095286e+00 0.0000000000000000e+00 0.0000000000000000e+00  1.0894079133320842e+00 0.0000000000000000e+00 0.0000000000000000e+00  1.0850124883796275e+00 0.0000000000000000e+00 0.0000000000000000e+00  1.0834424296596881e+00 0.0000000000000000e+00 0.0000000000000000e+00  1.0851789840610497e+00 0.0000000000000000e+00 0.0000000000000000e+00  1.0897901237969438e+00 0.0000000000000000e+00 0.0000000000000000e+00  1.0965616113051853e+00 0.0000000000000000e+00 0.0000000000000000e+00  1.1048674583877238e+00 0.0000000000000000e+00 0.0000000000000000e+00  1.1119709348383708e+00 0.0000000000000000e+00 0.0000000000000000e+00  1.1166931399064086e+00 0.0000000000000000e+00 0.0000000000000000e+00  1.1198763191634542e+00 0.0000000000000000e+00 0.0000000000000000e+00  1.1181622256199799e+00 0.0000000000000000e+00 0.0000000000000000e+00  1.1128813021425805e+00 0.0000000000000000e+00 0.0000000000000000e+00  1.1059433425833072e+00 0.0000000000000000e+00 0.0000000000000000e+00  1.0971798321345740e+00 0.0000000000000000e+00 0.0000000000000000e+00  1.0884427078822874e+00 0.0000000000000000e+00 0.0000000000000000e+00  1.0828591669982008e+00 0.0000000000000000e+00 0.0000000000000000e+00  1.0790119786037677e+00 0.0000000000000000e+00 0.0000000000000000e+00  1.0784390487821958e+00 0.0000000000000000e+00 0.0000000000000000e+00  1.0821584457010109e+00 0.0000000000000000e+00 0.0000000000000000e+00  1.0882459385377692e+00 0.0000000000000000e+00 0.0000000000000000e+00  1.0963910971443642e+00 0.0000000000000000e+00 0.0000000000000000e+00  1.1058926387040748e+00 0.0000000000000000e+00 0.0000000000000000e+00  1.1133205309504450e+00 0.0000000000000000e+00 0.0000000000000000e+00  1.1176851058890440e+00 0.0000000000000000e+00 0.0000000000000000e+00  1.1209540697880103e+00 0.0000000000000000e+00 0.0000000000000000e+00  1.1181699622330559e+00 0.0000000000000000e+00 0.0000000000000000e+00  1.1103022582610522e+00 0.0000000000000000e+00 0.0000000000000000e+00  1.1010531080983583e+00 0.0000000000000000e+00 0.0000000000000000e+00  1.0923750847503104e+00 0.0000000000000000e+00 0.0000000000000000e+00  1.0826009454544503e+00 0.0000000000000000e+00 0.0000000000000000e+00  1.0670094467128022e+00 0.0000000000000000e+00 0.0000000000000000e+00  1.0608838323042753e+00 0.0000000000000000e+00 0.0000000000000000e+00  1.0567219991512671e+00 0.0000000000000000e+00 0.0000000000000000e+00  1.0551841164868347e+00 0.0000000000000000e+00 0.0000000000000000e+00  1.0551324111046754e+00 0.0000000000000000e+00 0.0000000000000000e+00  1.0554445314409298e+00 0.0000000000000000e+00 0.0000000000000000e+00  1.0561859738990018e+00 0.0000000000000000e+00 0.0000000000000000e+00  1.0568937300031420e+00 0.0000000000000000e+00 0.0000000000000000e+00  1.0570517468219762e+00 0.0000000000000000e+00 0.0000000000000000e+00  1.0558361251267310e+00 0.0000000000000000e+00 0.0000000000000000e+00  1.0542850544215367e+00 0.0000000000000000e+00 0.0000000000000000e+00  1.0516696964296035e+00 0.0000000000000000e+00 0.0000000000000000e+00  1.0482528250799528e+00 0.0000000000000000e+00 0.0000000000000000e+00  1.0449775356320092e+00 0.0000000000000000e+00 0.0000000000000000e+00  1.0415427606587475e+00 0.0000000000000000e+00 0.0000000000000000e+00  1.0387468196166627e+00 0.0000000000000000e+00 0.0000000000000000e+00  1.0352865932739259e+00 0.0000000000000000e+00 0.0000000000000000e+00  1.0327665574888878e+00 0.0000000000000000e+00 0.0000000000000000e+00  1.0303679712674703e+00 0.0000000000000000e+00 0.0000000000000000e+00  1.0290960433248928e+00 0.0000000000000000e+00 0.0000000000000000e+00  1.0275560978924592e+00 0.0000000000000000e+00 0.0000000000000000e+00  1.0269400980083627e+00 0.0000000000000000e+00 0.0000000000000000e+00  1.0256850294385740e+00 0.0000000000000000e+00 0.0000000000000000e+00  1.0260757216463494e+00 5.7120512587284955e-04 0.0000000000000000e+00  1.0273421609591511e+00 9.4339176020075566e-04 0.0000000000000000e+00  1.0293443677454541e+00 1.2224350101035660e-03 0.0000000000000000e+00  1.0301137985162505e+00 1.3168899991268406e-03 0.0000000000000000e+00  1.0313771084380785e+00 9.2707046927474688e-04 0.0000000000000000e+00  1.0309501765655473e+00 2.0340227577314286e-04 0.0000000000000000e+00  1.0276681630560478e+00 -1.0133038489730784e-03 0.0000000000000000e+00  1.0152020799245802e+00 -2.2484482529183834e-03 0.0000000000000000e+00  9.8134158994287102e-01 -3.1300729787068320e-03 0.0000000000000000e+00  9.2611434256201663e-01 -4.1717314228207217e-03 0.0000000000000000e+00  8.7778583985014402e-01 -7.9240082470471065e-03 0.0000000000000000e+00  8.7052370429012638e-01 -1.2562084679364165e-02 0.0000000000000000e+00  9.0726552887535505e-01 -1.7358212419078475e-02 0.0000000000000000e+00  9.5885028749929713e-01 -2.0016433517574882e-02 0.0000000000000000e+00  9.9936063884358617e-01 -1.9897556521076512e-02 0.0000000000000000e+00  1.0214935607788496e+00 -1.7801305875434985e-02 0.0000000000000000e+00  1.0293552329574267e+00 -1.5477258153309947e-02 0.0000000000000000e+00  1.0318567426253344e+00 -1.2404255633822131e-02 0.0000000000000000e+00  1.0319010370063810e+00 -9.6113930122702761e-03 0.0000000000000000e+00  1.0319101817481613e+00 -7.2607689573968709e-03 0.0000000000000000e+00  1.0305859199821570e+00 -5.1608754397544530e-03 0.0000000000000000e+00  1.0297694378113609e+00 -3.3369604254383876e-03 0.0000000000000000e+00  1.0284890874646957e+00 -1.6950412612072548e-03 0.0000000000000000e+00  1.0290568632869497e+00 0.0000000000000000e+00 0.0000000000000000e+00  1.0305964911328014e+00 0.0000000000000000e+00 0.0000000000000000e+00  1.0319866912629052e+00 0.0000000000000000e+00 0.0000000000000000e+00  1.0334644115367690e+00 0.0000000000000000e+00 0.0000000000000000e+00  1.0340496468740008e+00 0.0000000000000000e+00 0.0000000000000000e+00  1.0348478954156466e+00 0.0000000000000000e+00 0.0000000000000000e+00  1.0355413561446629e+00 0.0000000000000000e+00 0.0000000000000000e+00  1.0361651584955267e+00 0.0000000000000000e+00 0.0000000000000000e+00  1.0360603049510608e+00 0.0000000000000000e+00 0.0000000000000000e+00  1.0364280052341375e+00 0.0000000000000000e+00 0.0000000000000000e+00  1.0370606907680413e+00 0.0000000000000000e+00 0.0000000000000000e+00  1.0382099503592930e+00 0.0000000000000000e+00 0.0000000000000000e+00  1.0402906324878849e+00 0.0000000000000000e+00 0.0000000000000000e+00  1.0441315559499325e+00 0.0000000000000000e+00 0.0000000000000000e+00  1.0483027506232052e+00 0.0000000000000000e+00 0.0000000000000000e+00  1.0545450936544132e+00 0.0000000000000000e+00 0.0000000000000000e+00  1.0603639362298747e+00 0.0000000000000000e+00 0.0000000000000000e+00  1.0674526036833456e+00 0.0000000000000000e+00 0.0000000000000000e+00  1.0742721177608527e+00 0.0000000000000000e+00 0.0000000000000000e+00  1.0812750153760662e+00 0.0000000000000000e+00 0.0000000000000000e+00  1.0867441630569221e+00 0.0000000000000000e+00 0.0000000000000000e+00  1.0899482382979204e+00 0.0000000000000000e+00 0.0000000000000000e+00  1.0914240391550554e+00 0.0000000000000000e+00 0.0000000000000000e+00  1.0864396567294856e+00 0.0000000000000000e+00 0.0000000000000000e+00  1.0822078200675145e+00 0.0000000000000000e+00 0.0000000000000000e+00  1.0769876545578134e+00 0.0000000000000000e+00 0.0000000000000000e+00  1.0743461143577675e+00 0.0000000000000000e+00 0.0000000000000000e+00  1.0746419204055710e+00 0.0000000000000000e+00 0.0000000000000000e+00  1.0763472785522685e+00 0.0000000000000000e+00 0.0000000000000000e+00  1.0789957869845994e+00 0.0000000000000000e+00 0.0000000000000000e+00  1.0864315241269866e+00 0.0000000000000000e+00 0.0000000000000000e+00  1.0956825707593352e+00 0.0000000000000000e+00 0.0000000000000000e+00  1.1049777146896358e+00 0.0000000000000000e+00 0.0000000000000000e+00  1.1144119848147551e+00 0.0000000000000000e+00 0.0000000000000000e+00  1.1217862919835475e+00 0.0000000000000000e+00 0.0000000000000000e+00  1.1251812894597821e+00 0.0000000000000000e+00 0.0000000000000000e+00  1.1251601879589657e+00 0.0000000000000000e+00 0.0000000000000000e+00  1.1206196614385191e+00 0.0000000000000000e+00 0.0000000000000000e+00  1.1117612765480211e+00 0.0000000000000000e+00 0.0000000000000000e+00  1.1022918633551630e+00 0.0000000000000000e+00 0.0000000000000000e+00  1.0927063875123100e+00 0.0000000000000000e+00 0.0000000000000000e+00  1.0837481699254643e+00 0.0000000000000000e+00 0.0000000000000000e+00  1.0787700933650388e+00 0.0000000000000000e+00 0.0000000000000000e+00  1.0770956578035884e+00 0.0000000000000000e+00 0.0000000000000000e+00  1.0778661088530117e+00 0.0000000000000000e+00 0.0000000000000000e+00  1.0830023590604947e+00 0.0000000000000000e+00 0.0000000000000000e+00  1.0901051869468106e+00 0.0000000000000000e+00 0.0000000000000000e+00  1.0972837798993711e+00 0.0000000000000000e+00 0.0000000000000000e+00  1.1044201198653982e+00 0.0000000000000000e+00 0.0000000000000000e+00  1.1102817141814796e+00 0.0000000000000000e+00 0.0000000000000000e+00  1.1132677483875271e+00 0.0000000000000000e+00 0.0000000000000000e+00  1.1142827588884481e+00 0.0000000000000000e+00 0.0000000000000000e+00  1.1128993018647348e+00 0.0000000000000000e+00 0.0000000000000000e+00  1.1098642597171853e+00 0.0000000000000000e+00 0.0000000000000000e+00  1.1070615408825986e+00 0.0000000000000000e+00 0.0000000000000000e+00  1.1038159412138939e+00 0.0000000000000000e+00 0.0000000000000000e+00  1.1025644050745784e+00 0.0000000000000000e+00 0.0000000000000000e+00  1.1040323370190572e+00 0.0000000000000000e+00 0.0000000000000000e+00  1.1075324158777986e+00 0.0000000000000000e+00 0.0000000000000000e+00  1.1121198255917748e+00 0.0000000000000000e+00 0.0000000000000000e+00  1.1174364486444730e+00 0.0000000000000000e+00 0.0000000000000000e+00  1.1232963342869269e+00 0.0000000000000000e+00 0.0000000000000000e+00  1.1294243028705993e+00 0.0000000000000000e+00 0.0000000000000000e+00  1.1337949178562849e+00 0.0000000000000000e+00 0.0000000000000000e+00  1.1360186250661213e+00 0.0000000000000000e+00 0.0000000000000000e+00  1.1377082690786351e+00 0.0000000000000000e+00 0.0000000000000000e+00  1.1356191080398637e+00 0.0000000000000000e+00 0.0000000000000000e+00  1.1322577658628077e+00 0.0000000000000000e+00 0.0000000000000000e+00  1.1265413719301527e+00 0.0000000000000000e+00 0.0000000000000000e+00  1.1184830438360409e+00 0.0000000000000000e+00 0.0000000000000000e+00  1.1091121821640022e+00 0.0000000000000000e+00 0.0000000000000000e+00  1.0989727989948841e+00 0.0000000000000000e+00 0.0000000000000000e+00  1.0883189226796190e+00 0.0000000000000000e+00 0.0000000000000000e+00  1.0766760053223403e+00 0.0000000000000000e+00 0.0000000000000000e+00  1.0663753503395987e+00 0.0000000000000000e+00 0.0000000000000000e+00  1.0558934981275181e+00 0.0000000000000000e+00 0.0000000000000000e+00  1.0371377099816623e+00 0.0000000000000000e+00 0.0000000000000000e+00  1.0294001115225884e+00 0.0000000000000000e+00 0.0000000000000000e+00  1.0233583252188618e+00 0.0000000000000000e+00 0.0000000000000000e+00  1.0179822622337407e+00 0.0000000000000000e+00 0.0000000000000000e+00  1.0136988903643045e+00 0.0000000000000000e+00 0.0000000000000000e+00  1.0103281470966679e+00 0.0000000000000000e+00 0.0000000000000000e+00  1.0077646518388836e+00 0.0000000000000000e+00 0.0000000000000000e+00  1.0053533715103509e+00 0.0000000000000000e+00 0.0000000000000000e+00  1.0037141799261677e+00 0.0000000000000000e+00 0.0000000000000000e+00  1.0025834111431586e+00 0.0000000000000000e+00 0.0000000000000000e+00  1.0013453606596321e+00 0.0000000000000000e+00 0.0000000000000000e+00  1.0011739791653587e+00 0.0000000000000000e+00 0.0000000000000000e+00  1.0001372307936285e+00 0.0000000000000000e+00 0.0000000000000000e+00  1.0001357947961755e+00 0.0000000000000000e+00 0.0000000000000000e+00  9.9976318139365516e-01 0.0000000000000000e+00 0.0000000000000000e+00  1.0004578322975508e+00 0.0000000000000000e+00 0.0000000000000000e+00  1.0002381777388849e+00 0.0000000000000000e+00 0.0000000000000000e+00  9.9979463235588095e-01 0.0000000000000000e+00 0.0000000000000000e+00  1.0000001294407581e+00 0.0000000000000000e+00 0.0000000000000000e+00  1.0000001294407581e+00 0.0000000000000000e+00 0.0000000000000000e+00  1.0000001294407581e+00 0.0000000000000000e+00 0.0000000000000000e+00  1.0000001294407581e+00 0.0000000000000000e+00 0.0000000000000000e+00  1.0000001294407581e+00 0.0000000000000000e+00 0.0000000000000000e+00  1.0000001294407581e+00 0.0000000000000000e+00 0.0000000000000000e+00  1.0000001294407581e+00 0.0000000000000000e+00 0.0000000000000000e+00  1.0000001294407581e+00 0.0000000000000000e+00 0.0000000000000000e+00  1.0000001294407581e+00 0.0000000000000000e+00 0.0000000000000000e+00  1.0000001294407581e+00 0.0000000000000000e+00 0.0000000000000000e+00  1.0000001294407581e+00 0.0000000000000000e+00 0.0000000000000000e+00  1.0000001294407581e+00 0.0000000000000000e+00 0.0000000000000000e+00  1.0000001294407581e+00 0.0000000000000000e+00 0.0000000000000000e+00  1.0000001294407581e+00 0.0000000000000000e+00 0.0000000000000000e+00  1.0000001294407581e+00 0.0000000000000000e+00 0.0000000000000000e+00  1.0000001294407581e+00 0.0000000000000000e+00 0.0000000000000000e+00  1.0000001294407581e+00 0.0000000000000000e+00 0.0000000000000000e+00  1.0000001294407581e+00 0.0000000000000000e+00 0.0000000000000000e+00  1.0000001294407581e+00 0.0000000000000000e+00 0.0000000000000000e+00  1.0000001294407581e+00 0.0000000000000000e+00 0.0000000000000000e+00  1.0473741837785522e+00 -1.1240097207117640e-02 0.0000000000000000e+00  1.0437765334761135e+00 -2.2574227797494337e-02 0.0000000000000000e+00  1.0404997147704560e+00 -3.4439273226600446e-02 0.0000000000000000e+00  1.0333509264417533e+00 -4.6638866704141357e-02 0.0000000000000000e+00  1.0258917866408839e+00 -6.3021997471730470e-02 0.0000000000000000e+00  1.0305918732758941e+00 -6.7000800276667397e-02 0.0000000000000000e+00  1.0348748282229985e+00 -7.1096090076870552e-02 0.0000000000000000e+00  1.0402372730629359e+00 -7.4922419997070125e-02 0.0000000000000000e+00  1.0458900240846980e+00 -7.8638939396841481e-02 0.0000000000000000e+00  1.0522086567536066e+00 -8.1984621322732487e-02 0.0000000000000000e+00  1.0591489635349833e+00 -8.5012522042884661e-02 0.0000000000000000e+00  1.0665939675872838e+00 -8.7408346825214964e-02 0.0000000000000000e+00  1.0745901928777393e+00 -8.9311606752837600e-02 0.0000000000000000e+00  1.0827771385775842e+00 -9.0357827089347253e-02 0.0000000000000000e+00  1.0913502819410692e+00 -9.0788586999322934e-02 0.0000000000000000e+00  1.1000509821580011e+00 -9.0453130961881900e-02 0.0000000000000000e+00  1.1088881552336025e+00 -8.9075763793623627e-02 0.0000000000000000e+00  1.1174304407757871e+00 -8.6782722333966764e-02 0.0000000000000000e+00  1.1257759629772000e+00 -8.3761385280970851e-02 0.0000000000000000e+00  1.1337638515121633e+00 -7.9913038569108905e-02 0.0000000000000000e+00  1.1411448260411654e+00 -7.5238154227642740e-02 0.0000000000000000e+00  1.1479821693483658e+00 -6.9927829861196014e-02 0.0000000000000000e+00  1.1540623998737902e+00 -6.4047722386714440e-02 0.0000000000000000e+00  1.1594464641937812e+00 -5.7515725599409963e-02 0.0000000000000000e+00  1.1640196358265775e+00 -5.0777867688693919e-02 0.0000000000000000e+00  1.1677774814858435e+00 -4.3608651821604220e-02 0.0000000000000000e+00  1.1704753483481736e+00 -3.6131840753242168e-02 0.0000000000000000e+00  1.1724362364188423e+00 -2.8619097746859917e-02 0.0000000000000000e+00  1.1732654196165893e+00 -2.1145815449683494e-02 0.0000000000000000e+00  1.1732012863084922e+00 -1.3760999481376929e-02 0.0000000000000000e+00  1.1721051861621008e+00 -6.6384488159982151e-03 0.0000000000000000e+00  1.1700139052219363e+00 -3.5784180626551776e-05 0.0000000000000000e+00  1.1670585199768728e+00 6.1374453121838058e-03 0.0000000000000000e+00  1.1631806240427653e+00 1.1705087621901578e-02 0.0000000000000000e+00  1.1586382415320262e+00 1.6365385254782275e-02 0.0000000000000000e+00  1.1534557748266445e+00 2.00915