<?xml version="1.0"?>
<VTKFile type="UnstructuredGrid"  version="0.1"  >
<UnstructuredGrid>
<Piece  NumberOfPoints="10199" NumberOfCells="20110">
<Points>
<DataArray  type="Float64"  NumberOfComponents="3"  format="ascii">0 -5 0  8 -5 0  30 -5 0  40 -5 0  40 5 0  30 5 0  8 5 0  0 5 0  8 -2.5 0  15 -2.5 0  30 -2.5 0  30 2.5 0  15 2.5 0  8 2.5 0  10 0.5 0  10 -0.5 0  0 0 0  0.4210526315780956 -5 0  0.8421052631563433 -5 0  1.263157894734281 -5 0  1.684210526311999 -5 0  2.105263157889717 -5 0  2.526315789467435 -5 0  2.947368421045153 -5 0  3.368421052622872 -5 0  3.78947368420059 -5 0  4.210526315779479 -5 0  4.631578947359537 -5 0  5.052631578939595 -5 0  5.473684210519653 -5 0  5.89473684209971 -5 0  6.315789473679768 -5 0  6.736842105259826 -5 0  7.157894736839884 -5 0  7.578947368419942 -5 0  8.407407407405314 -5 0  8.814814814810628 -5 0  9.222222222215942 -5 0  9.629629629621256 -5 0  10.03703703702657 -5 0  10.44444444443188 -5 0  10.8518518518372 -5 0  11.25925925924251 -5 0  11.66666666664783 -5 0  12.07407407405314 -5 0  12.48148148145846 -5 0  12.88888888886377 -5 0  13.29629629626908 -5 0  13.7037037036744 -5 0  14.11111111107971 -5 0  14.51851851848502 -5 0  14.92592592589034 -5 0  15.33333333329565 -5 0  15.74074074070096 -5 0  16.14814814810754 -5 0  16.55555555551614 -5 0  16.96296296292474 -5 0  17.37037037033335 -5 0  17.77777777774195 -5 0  18.18518518515056 -5 0  18.59259259255916 -5 0  18.99999999996776 -5 0  19.40740740737636 -5 0  19.81481481478497 -5 0  20.22222222219357 -5 0  20.62962962960217 -5 0  21.03703703701077 -5 0  21.44444444441937 -5 0  21.85185185182797 -5 0  22.25925925923657 -5 0  22.66666666664518 -5 0  23.07407407405378 -5 0  23.48148148146238 -5 0  23.88888888887098 -5 0  24.29629629627958 -5 0  24.70370370368818 -5 0  25.11111111109678 -5 0  25.51851851850539 -5 0  25.92592592591399 -5 0  26.33333333332259 -5 0  26.74074074073119 -5 0  27.14814814813979 -5 0  27.55555555554839 -5 0  27.96296296295699 -5 0  28.3703703703656 -5 0  28.7777777777742 -5 0  29.1851851851828 -5 0  29.5925925925914 -5 0  30.41666666667852 -5 0  30.83333333335704 -5 0  31.25000000003556 -5 0  31.66666666671408 -5 0  32.08333333338936 -5 0  32.50000000005308 -5 0  32.9166666667168 -5 0  33.33333333338052 -5 0  33.75000000004424 -5 0  34.16666666670795 -5 0  34.58333333337167 -5 0  35.00000000003539 -5 0  35.41666666669911 -5 0  35.83333333336282 -5 0  36.25000000002654 -5 0  36.66666666669026 -5 0  37.08333333335398 -5 0  37.50000000001769 -5 0  37.91666666668141 -5 0  38.33333333334513 -5 0  38.75000000000885 -5 0  39.16666666667257 -5 0  39.58333333333628 -5 0  40 -4.583333333332821 0  40 -4.166666666665642 0  40 -3.74999999999855 0  40 -3.333333333333135 0  40 -2.916666666667806 0  40 -2.500000000002478 0  40 -2.083333333337148 0  40 -1.666666666671818 0  40 -1.250000000006488 0  40 -0.8333333333405228 0  40 -0.4166666666733416 0  40 -6.163070054299169e-12 0  40 0.4166666666610173 0  40 0.8333333333281976 0  40 1.249999999995378 0  40 1.666666666662558 0  40 2.083333333329739 0  40 2.499999999996919 0  40 2.916666666664099 0  40 3.33333333333128 0  40 3.74999999999846 0  40 4.166666666665641 0  40 4.583333333332821 0  39.58333333333628 5 0  39.16666666667256 5 0  38.75000000000885 5 0  38.33333333334513 5 0  37.91666666668141 5 0  37.50000000001769 5 0  37.08333333335398 5 0  36.66666666669025 5 0  36.25000000002654 5 0  35.83333333336282 5 0  35.41666666669911 5 0  35.00000000003539 5 0  34.58333333337167 5 0  34.16666666670795 5 0  33.75000000004424 5 0  33.33333333338052 5 0  32.9166666667168 5 0  32.50000000005308 5 0  32.08333333338936 5 0  31.66666666671408 5 0  31.25000000003556 5 0  30.83333333335704 5 0  30.41666666667852 5 0  29.59259259259259 5 0  29.18518518518519 5 0  28.77777777777778 5 0  28.37037037037037 5 0  27.96296296296296 5 0  27.55555555555556 5 0  27.14814814814815 5 0  26.74074074074074 5 0  26.33333333333333 5 0  25.92592592592593 5 0  25.51851851851852 5 0  25.11111111111111 5 0  24.7037037037037 5 0  24.2962962962963 5 0  23.88888888888889 5 0  23.48148148148148 5 0  23.07407407407408 5 0  22.66666666666667 5 0  22.25925925925926 5 0  21.85185185185185 5 0  21.44444444444445 5 0  21.03703703703704 5 0  20.62962962962963 5 0  20.22222222222222 5 0  19.81481481481482 5 0  19.40740740740741 5 0  19 5 0  18.5925925925926 5 0  18.18518518518519 5 0  17.77777777777778 5 0  17.37037037037037 5 0  16.96296296296296 5 0  16.55555555555556 5 0  16.14814814814815 5 0  15.74074074074074 5 0  15.33333333333333 5 0  14.92592592592593 5 0  14.51851851851852 5 0  14.11111111111111 5 0  13.70370370370371 5 0  13.2962962962963 5 0  12.88888888888889 5 0  12.48148148148148 5 0  12.07407407407408 5 0  11.66666666666667 5 0  11.25925925925926 5 0  10.85185185185185 5 0  10.44444444444445 5 0  10.03703703703704 5 0  9.629629629629633 5 0  9.222222222222221 5 0  8.814814814814817 5 0  8.407407407407408 5 0  7.5789473684193 5 0  7.157894736838599 5 0  6.73684210526082 5 0  6.315789473684795 5 0  5.894736842108769 5 0  5.473684210532742 5 0  5.052631578956715 5 0  4.631578947380689 5 0  4.210526315804662 5 0  3.789473684226299 5 0  3.368421052645599 5 0  2.947368421064898 5 0  2.526315789484198 5 0  2.105263157903499 5 0  1.6842105263228 5 0  1.2631578947421 5 0  0.8421052631613994 5 0  0.4210526315806993 5 0  0 4.545454545454545 0  0 4.09090909090909 0  0 3.636363636363634 0  0 3.18181818181818 0  0 2.727272727272726 0  0 2.272727272727271 0  0 1.818181818181817 0  0 1.363636363636363 0  0 0.9090909090909092 0  0 0.454545454545455 0  0 -0.4545454545450807 0  0 -0.9090909090895867 0  0 -1.363636363633713 0  0 -1.818181818177841 0  0 -2.272727272723127 0  0 -2.727272727269273 0  0 -3.181818181815419 0  0 -3.636363636361564 0  0 -4.090909090907709 0  0 -4.545454545453855 0  8 -4.499999999999999 0  8 -3.999999999999999 0  8 -3.499999999999999 0  8 -3 0  8.137254901963859 -2.5 0  8.274509803926303 -2.5 0  8.411764705886863 -2.5 0  8.549019607849138 -2.5 0  8.686274509809513 -2.5 0  8.82352941176989 -2.5 0  8.960784313730265 -2.5 0  9.098039215690642 -2.5 0  9.235294117651017 -2.5 0  9.372549019611395 -2.5 0  9.50980392157177 -2.5 0  9.647058823532147 -2.5 0  9.784313725492522 -2.5 0  9.921568627452897 -2.5 0  10.05882352941327 -2.5 0  10.19607843137365 -2.5 0  10.33333333333402 -2.5 0  10.4705882352944 -2.5 0  10.60784313725478 -2.5 0  10.74509803921515 -2.5 0  10.88235294117553 -2.5 0  11.0196078431359 -2.5 0  11.15686274509628 -2.5 0  11.29411764705665 -2.5 0  11.43137254901703 -2.5 0  11.56862745097915 -2.5 0  11.70588235294301 -2.5 0  11.84313725490686 -2.5 0  11.98039215687072 -2.5 0  12.11764705883209 -2.5 0  12.25490196079247 -2.5 0  12.39215686275285 -2.5 0  12.52941176471322 -2.5 0  12.6666666666736 -2.5 0  12.80392156863397 -2.5 0  12.94117647059435 -2.5 0  13.07843137255473 -2.5 0  13.2156862745151 -2.5 0  13.35294117647548 -2.5 0  13.49019607843586 -2.5 0  13.62745098039623 -2.5 0  13.76470588235661 -2.5 0  13.90196078431699 -2.5 0  14.03921568627736 -2.5 0  14.17647058823774 -2.5 0  14.31372549019812 -2.5 0  14.45098039215849 -2.5 0  14.58823529411887 -2.5 0  14.72549019607925 -2.5 0  14.86274509803962 -2.5 0  15.20270270270254 -2.5 0  15.40540540540509 -2.5 0  15.60810810810763 -2.5 0  15.81081081081017 -2.5 0  16.01351351351227 -2.5 0  16.21621621621265 -2.5 0  16.41891891891279 -2.5 0  16.62162162161294 -2.5 0  16.82432432431308 -2.5 0  17.02702702701322 -2.5 0  17.22972972971337 -2.5 0  17.43243243241351 -2.5 0  17.63513513511365 -2.5 0  17.83783783781379 -2.5 0  18.04054054051394 -2.5 0  18.24324324321408 -2.5 0  18.44594594591422 -2.5 0  18.64864864861436 -2.5 0  18.85135135131451 -2.5 0  19.05405405401465 -2.5 0  19.25675675671479 -2.5 0  19.45945945941494 -2.5 0  19.66216216211508 -2.5 0  19.86486486481522 -2.5 0  20.06756756751536 -2.5 0  20.27027027021551 -2.5 0  20.47297297291565 -2.5 0  20.6756756756158 -2.5 0  20.87837837831594 -2.5 0  21.08108108101608 -2.5 0  21.28378378371622 -2.5 0  21.48648648641637 -2.5 0  21.68918918911651 -2.5 0  21.89189189181666 -2.5 0  22.0945945945168 -2.5 0  22.29729729721694 -2.5 0  22.49999999991778 -2.5 0  22.70270270262203 -2.5 0  22.90540540532697 -2.5 0  23.10810810803191 -2.5 0  23.31081081073686 -2.5 0  23.5135135134418 -2.5 0  23.71621621614674 -2.5 0  23.91891891885169 -2.5 0  24.12162162155663 -2.5 0  24.32432432426158 -2.5 0  24.52702702696652 -2.5 0  24.72972972967146 -2.5 0  24.93243243237641 -2.5 0  25.13513513508135 -2.5 0  25.3378378377863 -2.5 0  25.54054054049124 -2.5 0  25.74324324319618 -2.5 0  25.94594594590112 -2.5 0  26.14864864860607 -2.5 0  26.35135135131101 -2.5 0  26.55405405401596 -2.5 0  26.7567567567209 -2.5 0  26.95945945942584 -2.5 0  27.16216216213079 -2.5 0  27.36486486483573 -2.5 0  27.56756756754068 -2.5 0  27.77027027024562 -2.5 0  27.97297297295056 -2.5 0  28.1756756756555 -2.5 0  28.37837837836045 -2.5 0  28.5810810810654 -2.5 0  28.78378378377034 -2.5 0  28.98648648647528 -2.5 0  29.18918918918023 -2.5 0  29.39189189188517 -2.5 0  29.59459459459011 -2.5 0  29.79729729729506 -2.5 0  30 -3.000000000000001 0  30 -3.500000000000001 0  30 -4.000000000000001 0  30 -4.5 0  8 4.499999999999999 0  8 3.999999999999999 0  8 3.499999999999999 0  8 3 0  8.137254901963859 2.5 0  8.274509803926303 2.5 0  8.411764705886863 2.5 0  8.549019607849138 2.5 0  8.686274509809513 2.5 0  8.82352941176989 2.5 0  8.960784313730265 2.5 0  9.098039215690642 2.5 0  9.235294117651017 2.5 0  9.372549019611395 2.5 0  9.50980392157177 2.5 0  9.647058823532147 2.5 0  9.784313725492522 2.5 0  9.921568627452897 2.5 0  10.05882352941327 2.5 0  10.19607843137365 2.5 0  10.33333333333402 2.5 0  10.4705882352944 2.5 0  10.60784313725478 2.5 0  10.74509803921515 2.5 0  10.88235294117553 2.5 0  11.0196078431359 2.5 0  11.15686274509628 2.5 0  11.29411764705665 2.5 0  11.43137254901703 2.5 0  11.56862745097915 2.5 0  11.70588235294301 2.5 0  11.84313725490686 2.5 0  11.98039215687072 2.5 0  12.11764705883209 2.5 0  12.25490196079247 2.5 0  1
[...]
<PointData  Vectors="f_17"> 
<DataArray  type="Float64"  Name="f_17"  NumberOfComponents="3" format="ascii">1.0000001305057313e+00 0.0000000000000000e+00 0.0000000000000000e+00  1.0392307260288152e+00 0.0000000000000000e+00 0.0000000000000000e+00  1.0543145655208290e+00 0.0000000000000000e+00 0.0000000000000000e+00  1.0783595405612507e+00 0.0000000000000000e+00 0.0000000000000000e+00  1.0883438141472965e+00 0.0000000000000000e+00 0.0000000000000000e+00  1.0599923037086585e+00 0.0000000000000000e+00 0.0000000000000000e+00  1.0417049910198615e+00 0.0000000000000000e+00 0.0000000000000000e+00  1.0000001305057313e+00 0.0000000000000000e+00 0.0000000000000000e+00  1.0174774344904651e+00 -5.0133450158843601e-02 0.0000000000000000e+00  9.8643719242186934e-01 2.5842427136558106e-02 0.0000000000000000e+00  1.0187882147426499e+00 6.8583938429302785e-02 0.0000000000000000e+00  1.1241857093087011e+00 7.8881933406475646e-02 0.0000000000000000e+00  1.1373495108756475e+00 -3.1006605198462271e-02 0.0000000000000000e+00  1.0253130360801339e+00 5.1550969030508702e-02 0.0000000000000000e+00  0.0000000000000000e+00 0.0000000000000000e+00 0.0000000000000000e+00  0.0000000000000000e+00 0.0000000000000000e+00 0.0000000000000000e+00  1.0000001305057313e+00 0.0000000000000000e+00 0.0000000000000000e+00  9.9928704374574429e-01 0.0000000000000000e+00 0.0000000000000000e+00  9.9868070512280993e-01 0.0000000000000000e+00 0.0000000000000000e+00  1.0006599432681429e+00 0.0000000000000000e+00 0.0000000000000000e+00  1.0003487927115924e+00 0.0000000000000000e+00 0.0000000000000000e+00  1.0011552608268468e+00 0.0000000000000000e+00 0.0000000000000000e+00  1.0012781619746136e+00 0.0000000000000000e+00 0.0000000000000000e+00  1.0013762726025612e+00 0.0000000000000000e+00 0.0000000000000000e+00  1.0020159083376370e+00 0.0000000000000000e+00 0.0000000000000000e+00  1.0030506929045839e+00 0.0000000000000000e+00 0.0000000000000000e+00  1.0040387823303294e+00 0.0000000000000000e+00 0.0000000000000000e+00  1.0053560389067426e+00 0.0000000000000000e+00 0.0000000000000000e+00  1.0074838064957319e+00 0.0000000000000000e+00 0.0000000000000000e+00  1.0096964088323541e+00 0.0000000000000000e+00 0.0000000000000000e+00  1.0134695367506430e+00 0.0000000000000000e+00 0.0000000000000000e+00  1.0150408433813134e+00 0.0000000000000000e+00 0.0000000000000000e+00  1.0194095600210593e+00 0.0000000000000000e+00 0.0000000000000000e+00  1.0259852554665367e+00 0.0000000000000000e+00 0.0000000000000000e+00  1.0312936028901643e+00 0.0000000000000000e+00 0.0000000000000000e+00  1.0473655130027049e+00 0.0000000000000000e+00 0.0000000000000000e+00  1.0561156333827055e+00 0.0000000000000000e+00 0.0000000000000000e+00  1.0645147634068033e+00 0.0000000000000000e+00 0.0000000000000000e+00  1.0735854914203060e+00 0.0000000000000000e+00 0.0000000000000000e+00  1.0812475979123359e+00 0.0000000000000000e+00 0.0000000000000000e+00  1.0881782455685525e+00 0.0000000000000000e+00 0.0000000000000000e+00  1.0943875134436913e+00 0.0000000000000000e+00 0.0000000000000000e+00  1.0974536362440668e+00 0.0000000000000000e+00 0.0000000000000000e+00  1.0989031174711676e+00 0.0000000000000000e+00 0.0000000000000000e+00  1.0977158687194442e+00 0.0000000000000000e+00 0.0000000000000000e+00  1.0946197968756037e+00 0.0000000000000000e+00 0.0000000000000000e+00  1.0885225235285163e+00 0.0000000000000000e+00 0.0000000000000000e+00  1.0821318341609378e+00 0.0000000000000000e+00 0.0000000000000000e+00  1.0748769282483173e+00 0.0000000000000000e+00 0.0000000000000000e+00  1.0678280236062634e+00 0.0000000000000000e+00 0.0000000000000000e+00  1.0622961327676115e+00 0.0000000000000000e+00 0.0000000000000000e+00  1.0584465158941270e+00 0.0000000000000000e+00 0.0000000000000000e+00  1.0568720306717743e+00 0.0000000000000000e+00 0.0000000000000000e+00  1.0570516907988450e+00 0.0000000000000000e+00 0.0000000000000000e+00  1.0584806105296656e+00 0.0000000000000000e+00 0.0000000000000000e+00  1.0617304788172770e+00 0.0000000000000000e+00 0.0000000000000000e+00  1.0648986048357507e+00 0.0000000000000000e+00 0.0000000000000000e+00  1.0655177492501624e+00 0.0000000000000000e+00 0.0000000000000000e+00  1.0649013244722216e+00 0.0000000000000000e+00 0.0000000000000000e+00  1.0619822925874258e+00 0.0000000000000000e+00 0.0000000000000000e+00  1.0572146727234677e+00 0.0000000000000000e+00 0.0000000000000000e+00  1.0519406060608210e+00 0.0000000000000000e+00 0.0000000000000000e+00  1.0463147433815014e+00 0.0000000000000000e+00 0.0000000000000000e+00  1.0419196332433689e+00 0.0000000000000000e+00 0.0000000000000000e+00  1.0397911200751526e+00 0.0000000000000000e+00 0.0000000000000000e+00  1.0393455323278045e+00 0.0000000000000000e+00 0.0000000000000000e+00  1.0411179353119309e+00 0.0000000000000000e+00 0.0000000000000000e+00  1.0464116258736740e+00 0.0000000000000000e+00 0.0000000000000000e+00  1.0516371513453440e+00 0.0000000000000000e+00 0.0000000000000000e+00  1.0565488540814671e+00 0.0000000000000000e+00 0.0000000000000000e+00  1.0612492973576602e+00 0.0000000000000000e+00 0.0000000000000000e+00  1.0630038609660808e+00 0.0000000000000000e+00 0.0000000000000000e+00  1.0621733964329230e+00 0.0000000000000000e+00 0.0000000000000000e+00  1.0605781344521090e+00 0.0000000000000000e+00 0.0000000000000000e+00  1.0566975809448054e+00 0.0000000000000000e+00 0.0000000000000000e+00  1.0522627395836082e+00 0.0000000000000000e+00 0.0000000000000000e+00  1.0492592433578942e+00 0.0000000000000000e+00 0.0000000000000000e+00  1.0470253590475316e+00 0.0000000000000000e+00 0.0000000000000000e+00  1.0467656384443114e+00 0.0000000000000000e+00 0.0000000000000000e+00  1.0491939859220352e+00 0.0000000000000000e+00 0.0000000000000000e+00  1.0523053653454202e+00 0.0000000000000000e+00 0.0000000000000000e+00  1.0559134643953914e+00 0.0000000000000000e+00 0.0000000000000000e+00  1.0619693161805652e+00 0.0000000000000000e+00 0.0000000000000000e+00  1.0648276423678023e+00 0.0000000000000000e+00 0.0000000000000000e+00  1.0643032944327810e+00 0.0000000000000000e+00 0.0000000000000000e+00  1.0627750419595003e+00 0.0000000000000000e+00 0.0000000000000000e+00  1.0611540247116122e+00 0.0000000000000000e+00 0.0000000000000000e+00  1.0574512436507411e+00 0.0000000000000000e+00 0.0000000000000000e+00  1.0515894262643308e+00 0.0000000000000000e+00 0.0000000000000000e+00  1.0498122261730978e+00 0.0000000000000000e+00 0.0000000000000000e+00  1.0500311453016860e+00 0.0000000000000000e+00 0.0000000000000000e+00  1.0528180966830492e+00 0.0000000000000000e+00 0.0000000000000000e+00  1.0570254252898383e+00 0.0000000000000000e+00 0.0000000000000000e+00  1.0609571153016182e+00 0.0000000000000000e+00 0.0000000000000000e+00  1.0644103222459380e+00 0.0000000000000000e+00 0.0000000000000000e+00  1.0665886830205964e+00 0.0000000000000000e+00 0.0000000000000000e+00  1.0670577125344161e+00 0.0000000000000000e+00 0.0000000000000000e+00  1.0652123866519017e+00 0.0000000000000000e+00 0.0000000000000000e+00  1.0626180705598354e+00 0.0000000000000000e+00 0.0000000000000000e+00  1.0594128464786647e+00 0.0000000000000000e+00 0.0000000000000000e+00  1.0565252424226472e+00 0.0000000000000000e+00 0.0000000000000000e+00  1.0555898248661615e+00 0.0000000000000000e+00 0.0000000000000000e+00  1.0565457385654267e+00 0.0000000000000000e+00 0.0000000000000000e+00  1.0600579044547052e+00 0.0000000000000000e+00 0.0000000000000000e+00  1.0642720765171416e+00 0.0000000000000000e+00 0.0000000000000000e+00  1.0697516836725800e+00 0.0000000000000000e+00 0.0000000000000000e+00  1.0745929973065780e+00 0.0000000000000000e+00 0.0000000000000000e+00  1.0789286541628562e+00 0.0000000000000000e+00 0.0000000000000000e+00  1.0807831723101016e+00 0.0000000000000000e+00 0.0000000000000000e+00  1.0814074087269345e+00 0.0000000000000000e+00 0.0000000000000000e+00  1.0797443118275614e+00 0.0000000000000000e+00 0.0000000000000000e+00  1.0789024090716028e+00 1.9956975022735655e-03 0.0000000000000000e+00  1.0796571713856731e+00 4.8897093374046068e-03 0.0000000000000000e+00  1.0803758441431690e+00 1.0042636680549498e-02 0.0000000000000000e+00  1.0790196051500800e+00 1.9713164206134538e-02 0.0000000000000000e+00  1.0768244826805771e+00 3.7056399772063965e-02 0.0000000000000000e+00  1.0672786561175667e+00 6.4859694014966232e-02 0.0000000000000000e+00  1.0421527727487194e+00 1.0468789912411973e-01 0.0000000000000000e+00  9.9346536269004049e-01 1.4959243820153881e-01 0.0000000000000000e+00  9.2204511499516251e-01 1.9187516577768240e-01 0.0000000000000000e+00  8.4202121781455419e-01 2.2080704399162518e-01 0.0000000000000000e+00  7.7247643268706967e-01 2.4622571056569767e-01 0.0000000000000000e+00  7.3454103429876261e-01 2.6759863468594663e-01 0.0000000000000000e+00  7.4911580394443322e-01 2.8838285819825987e-01 0.0000000000000000e+00  8.1724159407733310e-01 3.0368987241896533e-01 0.0000000000000000e+00  9.1890534972592786e-01 3.0148220817321963e-01 0.0000000000000000e+00  1.0175565883472353e+00 2.6559422756276335e-01 0.0000000000000000e+00  1.0794882724233674e+00 2.0692408781877081e-01 0.0000000000000000e+00  1.0990709694090222e+00 1.4279000796085797e-01 0.0000000000000000e+00  1.0967247915121443e+00 9.2125585089593162e-02 0.0000000000000000e+00  1.0937485586037747e+00 5.6564799196442070e-02 0.0000000000000000e+00  1.0919328276682956e+00 3.4734708168014966e-02 0.0000000000000000e+00  1.0909105396479917e+00 2.0093205878854083e-02 0.0000000000000000e+00  1.0893578568531952e+00 9.0567466786245412e-03 0.0000000000000000e+00  1.0795482682139137e+00 0.0000000000000000e+00 0.0000000000000000e+00  1.0719948677111493e+00 0.0000000000000000e+00 0.0000000000000000e+00  1.0664565250253022e+00 0.0000000000000000e+00 0.0000000000000000e+00  1.0639963781453068e+00 0.0000000000000000e+00 0.0000000000000000e+00  1.0632647534707309e+00 0.0000000000000000e+00 0.0000000000000000e+00  1.0646841944502596e+00 0.0000000000000000e+00 0.0000000000000000e+00  1.0670055366620128e+00 0.0000000000000000e+00 0.0000000000000000e+00  1.0693191439836183e+00 0.0000000000000000e+00 0.0000000000000000e+00  1.0697369310962734e+00 0.0000000000000000e+00 0.0000000000000000e+00  1.0689115169016534e+00 0.0000000000000000e+00 0.0000000000000000e+00  1.0661376208192450e+00 0.0000000000000000e+00 0.0000000000000000e+00  1.0619889317070681e+00 0.0000000000000000e+00 0.0000000000000000e+00  1.0573435007552601e+00 0.0000000000000000e+00 0.0000000000000000e+00  1.0539694765196559e+00 0.0000000000000000e+00 0.0000000000000000e+00  1.0511185461535126e+00 0.0000000000000000e+00 0.0000000000000000e+00  1.0512317740064889e+00 0.0000000000000000e+00 0.0000000000000000e+00  1.0520441680241688e+00 0.0000000000000000e+00 0.0000000000000000e+00  1.0550123360886372e+00 0.0000000000000000e+00 0.0000000000000000e+00  1.0584681861884733e+00 0.0000000000000000e+00 0.0000000000000000e+00  1.0622951201017348e+00 0.0000000000000000e+00 0.0000000000000000e+00  1.0645483156283093e+00 0.0000000000000000e+00 0.0000000000000000e+00  1.0646052568871502e+00 0.0000000000000000e+00 0.0000000000000000e+00  1.0632380692398038e+00 0.0000000000000000e+00 0.0000000000000000e+00  1.0554446437865261e+00 0.0000000000000000e+00 0.0000000000000000e+00  1.0515896077233626e+00 0.0000000000000000e+00 0.0000000000000000e+00  1.0478311766571295e+00 0.0000000000000000e+00 0.0000000000000000e+00  1.0472257172213495e+00 0.0000000000000000e+00 0.0000000000000000e+00  1.0494498505543086e+00 0.0000000000000000e+00 0.0000000000000000e+00  1.0522420279408689e+00 0.0000000000000000e+00 0.0000000000000000e+00  1.0543809756803206e+00 0.0000000000000000e+00 0.0000000000000000e+00  1.0589703736339624e+00 0.0000000000000000e+00 0.0000000000000000e+00  1.0626478048127515e+00 0.0000000000000000e+00 0.0000000000000000e+00  1.0638511705890237e+00 0.0000000000000000e+00 0.0000000000000000e+00  1.0634335916203050e+00 0.0000000000000000e+00 0.0000000000000000e+00  1.0608015702975560e+00 0.0000000000000000e+00 0.0000000000000000e+00  1.0558526386850717e+00 0.0000000000000000e+00 0.0000000000000000e+00  1.0510772553199663e+00 0.0000000000000000e+00 0.0000000000000000e+00  1.0466050220217469e+00 0.0000000000000000e+00 0.0000000000000000e+00  1.0426304211781805e+00 0.0000000000000000e+00 0.0000000000000000e+00  1.0420222929209888e+00 0.0000000000000000e+00 0.0000000000000000e+00  1.0435760297393164e+00 0.0000000000000000e+00 0.0000000000000000e+00  1.0462022170752119e+00 0.0000000000000000e+00 0.0000000000000000e+00  1.0510159909971712e+00 0.0000000000000000e+00 0.0000000000000000e+00  1.0559213796613880e+00 0.0000000000000000e+00 0.0000000000000000e+00  1.0589766652928720e+00 0.0000000000000000e+00 0.0000000000000000e+00  1.0615524012841284e+00 0.0000000000000000e+00 0.0000000000000000e+00  1.0617344031076839e+00 0.0000000000000000e+00 0.0000000000000000e+00  1.0586355838062811e+00 0.0000000000000000e+00 0.0000000000000000e+00  1.0542040971491229e+00 0.0000000000000000e+00 0.0000000000000000e+00  1.0489869893003692e+00 0.0000000000000000e+00 0.0000000000000000e+00  1.0438127029368998e+00 0.0000000000000000e+00 0.0000000000000000e+00  1.0405109438472011e+00 0.0000000000000000e+00 0.0000000000000000e+00  1.0394777044721242e+00 0.0000000000000000e+00 0.0000000000000000e+00  1.0406725033308843e+00 0.0000000000000000e+00 0.0000000000000000e+00  1.0450198081553592e+00 0.0000000000000000e+00 0.0000000000000000e+00  1.0499725157067654e+00 0.0000000000000000e+00 0.0000000000000000e+00  1.0563722784430951e+00 0.0000000000000000e+00 0.0000000000000000e+00  1.0636077689277101e+00 0.0000000000000000e+00 0.0000000000000000e+00  1.0700345198522341e+00 0.0000000000000000e+00 0.0000000000000000e+00  1.0747054086607957e+00 0.0000000000000000e+00 0.0000000000000000e+00  1.0774876882227380e+00 0.0000000000000000e+00 0.0000000000000000e+00  1.0793974124497183e+00 0.0000000000000000e+00 0.0000000000000000e+00  1.0811921468852128e+00 0.0000000000000000e+00 0.0000000000000000e+00  1.0818002533150137e+00 0.0000000000000000e+00 0.0000000000000000e+00  1.0822840232446196e+00 0.0000000000000000e+00 0.0000000000000000e+00  1.0843355586420180e+00 0.0000000000000000e+00 0.0000000000000000e+00  1.0848079952339860e+00 0.0000000000000000e+00 0.0000000000000000e+00  1.0858535952110320e+00 0.0000000000000000e+00 0.0000000000000000e+00  1.0858163032623489e+00 0.0000000000000000e+00 0.0000000000000000e+00  1.0839494445864784e+00 0.0000000000000000e+00 0.0000000000000000e+00  1.0808351167633123e+00 0.0000000000000000e+00 0.0000000000000000e+00  1.0766027564173157e+00 0.0000000000000000e+00 0.0000000000000000e+00  1.0710653322711172e+00 0.0000000000000000e+00 0.0000000000000000e+00  1.0638462362480672e+00 0.0000000000000000e+00 0.0000000000000000e+00  1.0570050478028441e+00 0.0000000000000000e+00 0.0000000000000000e+00  1.0492760699194537e+00 0.0000000000000000e+00 0.0000000000000000e+00  1.0342515680865156e+00 0.0000000000000000e+00 0.0000000000000000e+00  1.0276796847264993e+00 0.0000000000000000e+00 0.0000000000000000e+00  1.0224397122212081e+00 0.0000000000000000e+00 0.0000000000000000e+00  1.0177074018117205e+00 0.0000000000000000e+00 0.0000000000000000e+00  1.0138462738650922e+00 0.0000000000000000e+00 0.0000000000000000e+00  1.0107912686886749e+00 0.0000000000000000e+00 0.0000000000000000e+00  1.0084581962979040e+00 0.0000000000000000e+00 0.0000000000000000e+00  1.0062039429264480e+00 0.0000000000000000e+00 0.0000000000000000e+00  1.0046088360163317e+00 0.0000000000000000e+00 0.0000000000000000e+00  1.0034808842822165e+00 0.0000000000000000e+00 0.0000000000000000e+00  1.0021676515791291e+00 0.0000000000000000e+00 0.0000000000000000e+00  1.0018775441391261e+00 0.0000000000000000e+00 0.0000000000000000e+00  1.0006774087520673e+00 0.0000000000000000e+00 0.0000000000000000e+00  1.0005268276321497e+00 0.0000000000000000e+00 0.0000000000000000e+00  1.0000034911169178e+00 0.0000000000000000e+00 0.0000000000000000e+00  1.0005916063709308e+00 0.0000000000000000e+00 0.0000000000000000e+00  1.0002868101490434e+00 0.0000000000000000e+00 0.0000000000000000e+00  9.9980243380672562e-01 0.0000000000000000e+00 0.0000000000000000e+00  1.0000001305057313e+00 0.0000000000000000e+00 0.0000000000000000e+00  1.0000001305057313e+00 0.0000000000000000e+00 0.0000000000000000e+00  1.0000001305057313e+00 0.0000000000000000e+00 0.0000000000000000e+00  1.0000001305057313e+00 0.0000000000000000e+00 0.0000000000000000e+00  1.0000001305057313e+00 0.0000000000000000e+00 0.0000000000000000e+00  1.0000001305057313e+00 0.0000000000000000e+00 0.0000000000000000e+00  1.0000001305057313e+00 0.0000000000000000e+00 0.0000000000000000e+00  1.0000001305057313e+00 0.0000000000000000e+00 0.0000000000000000e+00  1.0000001305057313e+00 0.0000000000000000e+00 0.0000000000000000e+00  1.0000001305057313e+00 0.0000000000000000e+00 0.0000000000000000e+00  1.0000001305057313e+00 0.0000000000000000e+00 0.0000000000000000e+00  1.0000001305057313e+00 0.0000000000000000e+00 0.0000000000000000e+00  1.0000001305057313e+00 0.0000000000000000e+00 0.0000000000000000e+00  1.0000001305057313e+00 0.0000000000000000e+00 0.0000000000000000e+00  1.0000001305057313e+00 0.0000000000000000e+00 0.0000000000000000e+00  1.0000001305057313e+00 0.0000000000000000e+00 0.0000000000000000e+00  1.0000001305057313e+00 0.0000000000000000e+00 0.0000000000000000e+00  1.0000001305057313e+00 0.0000000000000000e+00 0.0000000000000000e+00  1.0000001305057313e+00 0.0000000000000000e+00 0.0000000000000000e+00  1.0000001305057313e+00 0.0000000000000000e+00 0.0000000000000000e+00  1.0385507241577991e+00 -9.4302009834691929e-03 0.0000000000000000e+00  1.0353174703579491e+00 -1.8999797728340258e-02 0.0000000000000000e+00  1.0327173130839173e+00 -2.9159867788631149e-02 0.0000000000000000e+00  1.0264992997855535e+00 -3.9665821322375505e-02 0.0000000000000000e+00  1.0199572321793828e+00 -5.3963012454395914e-02 0.0000000000000000e+00  1.0241358043832283e+00 -5.7489143376892662e-02 0.0000000000000000e+00  1.0279476581003146e+00 -6.1112497027271701e-02 0.0000000000000000e+00  1.0327440534484524e+00 -6.4476170370455194e-02 0.0000000000000000e+00  1.0378065458311851e+00 -6.7724380826192365e-02 0.0000000000000000e+00  1.0434764565882406e+00 -7.0601071352549130e-02 0.0000000000000000e+00  1.0497135763405658e+00 -7.3163184272884624e-02 0.0000000000000000e+00  1.0563761602323496e+00 -7.5121014577792508e-02 0.0000000000000000e+00  1.0635360414168786e+00 -7.6581204190239421e-02 0.0000000000000000e+00  1.0708087780334163e+00 -7.7225373768778430e-02 0.0000000000000000e+00  1.0783908992267601e+00 -7.7290312021492516e-02 0.0000000000000000e+00  1.0859940566901594e+00 -7.6669946098703298e-02 0.0000000000000000e+00  1.0936815909117172e+00 -7.5075905822163919e-02 0.0000000000000000e+00  1.1010192349364087e+00 -7.2660444353915513e-02 0.0000000000000000e+00  1.1080847794820055e+00 -6.9670318211405971e-02 0.0000000000000000e+00  1.1147564619341770e+00 -6.6004817133646310e-02 0.0000000000000000e+00  1.1208834502647200e+00 -6.1769299746599338e-02 0.0000000000000000e+00  1.1264626155217656e+00 -5.7056325596240597e-02 0.0000000000000000e+00  1.1315329471272189e+00 -5.2043641624348262e-02 0.0000000000000000e+00  1.1360641226523458e+00 -4.6600634559410777e-02 0.0000000000000000e+00  1.1401054660800940e+00 -4.1117689308040870e-02 0.0000000000000000e+00  1.1436821686871528e+00 -3.5221744606853241e-02 0.0000000000000000e+00  1.1467814458649470e+00 -2.9139818485418394e-02 0.0000000000000000e+00  1.1495660075837204e+00 -2.2911492290480319e-02 0.0000000000000000e+00  1.1518836517545719e+00 -1.6446071998914166e-02 0.0000000000000000e+00  1.1537644435885515e+00 -9.6685173318268470e-03 0.0000000000000000e+00  1.1551366161859655e+00 -2.5248149478727124e-03 0.0000000000000000e+00  1.1559174514183133e+00 4.9291546614335753e-03 0.0000000000000000e+00  1.1560072075765160e+00 1.2798826891229929e-02 0.0000000000000000e+00  1.1552799508475173e+00 2.1009963110158431e-02 0.0000000000000000e+00  1.1535915991540715e+00 2.9431191022756712e-02 0.0000000000000000e+00  1.1508599222480025e+00 3.7969287601594418e-02 0.0