<?xml version="1.0"?>
<VTKFile type="UnstructuredGrid"  version="0.1"  >
<UnstructuredGrid>
<Piece  NumberOfPoints="10199" NumberOfCells="20110">
<Points>
<DataArray  type="Float64"  NumberOfComponents="3"  format="ascii">0 -5 0  8 -5 0  30 -5 0  40 -5 0  40 5 0  30 5 0  8 5 0  0 5 0  8 -2.5 0  15 -2.5 0  30 -2.5 0  30 2.5 0  15 2.5 0  8 2.5 0  10 0.5 0  10 -0.5 0  0 0 0  0.4210526315780956 -5 0  0.8421052631563433 -5 0  1.263157894734281 -5 0  1.684210526311999 -5 0  2.105263157889717 -5 0  2.526315789467435 -5 0  2.947368421045153 -5 0  3.368421052622872 -5 0  3.78947368420059 -5 0  4.210526315779479 -5 0  4.631578947359537 -5 0  5.052631578939595 -5 0  5.473684210519653 -5 0  5.89473684209971 -5 0  6.315789473679768 -5 0  6.736842105259826 -5 0  7.157894736839884 -5 0  7.578947368419942 -5 0  8.407407407405314 -5 0  8.814814814810628 -5 0  9.222222222215942 -5 0  9.629629629621256 -5 0  10.03703703702657 -5 0  10.44444444443188 -5 0  10.8518518518372 -5 0  11.25925925924251 -5 0  11.66666666664783 -5 0  12.07407407405314 -5 0  12.48148148145846 -5 0  12.88888888886377 -5 0  13.29629629626908 -5 0  13.7037037036744 -5 0  14.11111111107971 -5 0  14.51851851848502 -5 0  14.92592592589034 -5 0  15.33333333329565 -5 0  15.74074074070096 -5 0  16.14814814810754 -5 0  16.55555555551614 -5 0  16.96296296292474 -5 0  17.37037037033335 -5 0  17.77777777774195 -5 0  18.18518518515056 -5 0  18.59259259255916 -5 0  18.99999999996776 -5 0  19.40740740737636 -5 0  19.81481481478497 -5 0  20.22222222219357 -5 0  20.62962962960217 -5 0  21.03703703701077 -5 0  21.44444444441937 -5 0  21.85185185182797 -5 0  22.25925925923657 -5 0  22.66666666664518 -5 0  23.07407407405378 -5 0  23.48148148146238 -5 0  23.88888888887098 -5 0  24.29629629627958 -5 0  24.70370370368818 -5 0  25.11111111109678 -5 0  25.51851851850539 -5 0  25.92592592591399 -5 0  26.33333333332259 -5 0  26.74074074073119 -5 0  27.14814814813979 -5 0  27.55555555554839 -5 0  27.96296296295699 -5 0  28.3703703703656 -5 0  28.7777777777742 -5 0  29.1851851851828 -5 0  29.5925925925914 -5 0  30.41666666667852 -5 0  30.83333333335704 -5 0  31.25000000003556 -5 0  31.66666666671408 -5 0  32.08333333338936 -5 0  32.50000000005308 -5 0  32.9166666667168 -5 0  33.33333333338052 -5 0  33.75000000004424 -5 0  34.16666666670795 -5 0  34.58333333337167 -5 0  35.00000000003539 -5 0  35.41666666669911 -5 0  35.83333333336282 -5 0  36.25000000002654 -5 0  36.66666666669026 -5 0  37.08333333335398 -5 0  37.50000000001769 -5 0  37.91666666668141 -5 0  38.33333333334513 -5 0  38.75000000000885 -5 0  39.16666666667257 -5 0  39.58333333333628 -5 0  40 -4.583333333332821 0  40 -4.166666666665642 0  40 -3.74999999999855 0  40 -3.333333333333135 0  40 -2.916666666667806 0  40 -2.500000000002478 0  40 -2.083333333337148 0  40 -1.666666666671818 0  40 -1.250000000006488 0  40 -0.8333333333405228 0  40 -0.4166666666733416 0  40 -6.163070054299169e-12 0  40 0.4166666666610173 0  40 0.8333333333281976 0  40 1.249999999995378 0  40 1.666666666662558 0  40 2.083333333329739 0  40 2.499999999996919 0  40 2.916666666664099 0  40 3.33333333333128 0  40 3.74999999999846 0  40 4.166666666665641 0  40 4.583333333332821 0  39.58333333333628 5 0  39.16666666667256 5 0  38.75000000000885 5 0  38.33333333334513 5 0  37.91666666668141 5 0  37.50000000001769 5 0  37.08333333335398 5 0  36.66666666669025 5 0  36.25000000002654 5 0  35.83333333336282 5 0  35.41666666669911 5 0  35.00000000003539 5 0  34.58333333337167 5 0  34.16666666670795 5 0  33.75000000004424 5 0  33.33333333338052 5 0  32.9166666667168 5 0  32.50000000005308 5 0  32.08333333338936 5 0  31.66666666671408 5 0  31.25000000003556 5 0  30.83333333335704 5 0  30.41666666667852 5 0  29.59259259259259 5 0  29.18518518518519 5 0  28.77777777777778 5 0  28.37037037037037 5 0  27.96296296296296 5 0  27.55555555555556 5 0  27.14814814814815 5 0  26.74074074074074 5 0  26.33333333333333 5 0  25.92592592592593 5 0  25.51851851851852 5 0  25.11111111111111 5 0  24.7037037037037 5 0  24.2962962962963 5 0  23.88888888888889 5 0  23.48148148148148 5 0  23.07407407407408 5 0  22.66666666666667 5 0  22.25925925925926 5 0  21.85185185185185 5 0  21.44444444444445 5 0  21.03703703703704 5 0  20.62962962962963 5 0  20.22222222222222 5 0  19.81481481481482 5 0  19.40740740740741 5 0  19 5 0  18.5925925925926 5 0  18.18518518518519 5 0  17.77777777777778 5 0  17.37037037037037 5 0  16.96296296296296 5 0  16.55555555555556 5 0  16.14814814814815 5 0  15.74074074074074 5 0  15.33333333333333 5 0  14.92592592592593 5 0  14.51851851851852 5 0  14.11111111111111 5 0  13.70370370370371 5 0  13.2962962962963 5 0  12.88888888888889 5 0  12.48148148148148 5 0  12.07407407407408 5 0  11.66666666666667 5 0  11.25925925925926 5 0  10.85185185185185 5 0  10.44444444444445 5 0  10.03703703703704 5 0  9.629629629629633 5 0  9.222222222222221 5 0  8.814814814814817 5 0  8.407407407407408 5 0  7.5789473684193 5 0  7.157894736838599 5 0  6.73684210526082 5 0  6.315789473684795 5 0  5.894736842108769 5 0  5.473684210532742 5 0  5.052631578956715 5 0  4.631578947380689 5 0  4.210526315804662 5 0  3.789473684226299 5 0  3.368421052645599 5 0  2.947368421064898 5 0  2.526315789484198 5 0  2.105263157903499 5 0  1.6842105263228 5 0  1.2631578947421 5 0  0.8421052631613994 5 0  0.4210526315806993 5 0  0 4.545454545454545 0  0 4.09090909090909 0  0 3.636363636363634 0  0 3.18181818181818 0  0 2.727272727272726 0  0 2.272727272727271 0  0 1.818181818181817 0  0 1.363636363636363 0  0 0.9090909090909092 0  0 0.454545454545455 0  0 -0.4545454545450807 0  0 -0.9090909090895867 0  0 -1.363636363633713 0  0 -1.818181818177841 0  0 -2.272727272723127 0  0 -2.727272727269273 0  0 -3.181818181815419 0  0 -3.636363636361564 0  0 -4.090909090907709 0  0 -4.545454545453855 0  8 -4.499999999999999 0  8 -3.999999999999999 0  8 -3.499999999999999 0  8 -3 0  8.137254901963859 -2.5 0  8.274509803926303 -2.5 0  8.411764705886863 -2.5 0  8.549019607849138 -2.5 0  8.686274509809513 -2.5 0  8.82352941176989 -2.5 0  8.960784313730265 -2.5 0  9.098039215690642 -2.5 0  9.235294117651017 -2.5 0  9.372549019611395 -2.5 0  9.50980392157177 -2.5 0  9.647058823532147 -2.5 0  9.784313725492522 -2.5 0  9.921568627452897 -2.5 0  10.05882352941327 -2.5 0  10.19607843137365 -2.5 0  10.33333333333402 -2.5 0  10.4705882352944 -2.5 0  10.60784313725478 -2.5 0  10.74509803921515 -2.5 0  10.88235294117553 -2.5 0  11.0196078431359 -2.5 0  11.15686274509628 -2.5 0  11.29411764705665 -2.5 0  11.43137254901703 -2.5 0  11.56862745097915 -2.5 0  11.70588235294301 -2.5 0  11.84313725490686 -2.5 0  11.98039215687072 -2.5 0  12.11764705883209 -2.5 0  12.25490196079247 -2.5 0  12.39215686275285 -2.5 0  12.52941176471322 -2.5 0  12.6666666666736 -2.5 0  12.80392156863397 -2.5 0  12.94117647059435 -2.5 0  13.07843137255473 -2.5 0  13.2156862745151 -2.5 0  13.35294117647548 -2.5 0  13.49019607843586 -2.5 0  13.62745098039623 -2.5 0  13.76470588235661 -2.5 0  13.90196078431699 -2.5 0  14.03921568627736 -2.5 0  14.17647058823774 -2.5 0  14.31372549019812 -2.5 0  14.45098039215849 -2.5 0  14.58823529411887 -2.5 0  14.72549019607925 -2.5 0  14.86274509803962 -2.5 0  15.20270270270254 -2.5 0  15.40540540540509 -2.5 0  15.60810810810763 -2.5 0  15.81081081081017 -2.5 0  16.01351351351227 -2.5 0  16.21621621621265 -2.5 0  16.41891891891279 -2.5 0  16.62162162161294 -2.5 0  16.82432432431308 -2.5 0  17.02702702701322 -2.5 0  17.22972972971337 -2.5 0  17.43243243241351 -2.5 0  17.63513513511365 -2.5 0  17.83783783781379 -2.5 0  18.04054054051394 -2.5 0  18.24324324321408 -2.5 0  18.44594594591422 -2.5 0  18.64864864861436 -2.5 0  18.85135135131451 -2.5 0  19.05405405401465 -2.5 0  19.25675675671479 -2.5 0  19.45945945941494 -2.5 0  19.66216216211508 -2.5 0  19.86486486481522 -2.5 0  20.06756756751536 -2.5 0  20.27027027021551 -2.5 0  20.47297297291565 -2.5 0  20.6756756756158 -2.5 0  20.87837837831594 -2.5 0  21.08108108101608 -2.5 0  21.28378378371622 -2.5 0  21.48648648641637 -2.5 0  21.68918918911651 -2.5 0  21.89189189181666 -2.5 0  22.0945945945168 -2.5 0  22.29729729721694 -2.5 0  22.49999999991778 -2.5 0  22.70270270262203 -2.5 0  22.90540540532697 -2.5 0  23.10810810803191 -2.5 0  23.31081081073686 -2.5 0  23.5135135134418 -2.5 0  23.71621621614674 -2.5 0  23.91891891885169 -2.5 0  24.12162162155663 -2.5 0  24.32432432426158 -2.5 0  24.52702702696652 -2.5 0  24.72972972967146 -2.5 0  24.93243243237641 -2.5 0  25.13513513508135 -2.5 0  25.3378378377863 -2.5 0  25.54054054049124 -2.5 0  25.74324324319618 -2.5 0  25.94594594590112 -2.5 0  26.14864864860607 -2.5 0  26.35135135131101 -2.5 0  26.55405405401596 -2.5 0  26.7567567567209 -2.5 0  26.95945945942584 -2.5 0  27.16216216213079 -2.5 0  27.36486486483573 -2.5 0  27.56756756754068 -2.5 0  27.77027027024562 -2.5 0  27.97297297295056 -2.5 0  28.1756756756555 -2.5 0  28.37837837836045 -2.5 0  28.5810810810654 -2.5 0  28.78378378377034 -2.5 0  28.98648648647528 -2.5 0  29.18918918918023 -2.5 0  29.39189189188517 -2.5 0  29.59459459459011 -2.5 0  29.79729729729506 -2.5 0  30 -3.000000000000001 0  30 -3.500000000000001 0  30 -4.000000000000001 0  30 -4.5 0  8 4.499999999999999 0  8 3.999999999999999 0  8 3.499999999999999 0  8 3 0  8.137254901963859 2.5 0  8.274509803926303 2.5 0  8.411764705886863 2.5 0  8.549019607849138 2.5 0  8.686274509809513 2.5 0  8.82352941176989 2.5 0  8.960784313730265 2.5 0  9.098039215690642 2.5 0  9.235294117651017 2.5 0  9.372549019611395 2.5 0  9.50980392157177 2.5 0  9.647058823532147 2.5 0  9.784313725492522 2.5 0  9.921568627452897 2.5 0  10.05882352941327 2.5 0  10.19607843137365 2.5 0  10.33333333333402 2.5 0  10.4705882352944 2.5 0  10.60784313725478 2.5 0  10.74509803921515 2.5 0  10.88235294117553 2.5 0  11.0196078431359 2.5 0  11.15686274509628 2.5 0  11.29411764705665 2.5 0  11.43137254901703 2.5 0  11.56862745097915 2.5 0  11.70588235294301 2.5 0  11.84313725490686 2.5 0  11.98039215687072 2.5 0  12.11764705883209 2.5 0  12.25490196079247 2.5 0  1
[...]
<PointData  Vectors="f_17"> 
<DataArray  type="Float64"  Name="f_17"  NumberOfComponents="3" format="ascii">1.0000001318435561e+00 0.0000000000000000e+00 0.0000000000000000e+00  1.0409692389289853e+00 0.0000000000000000e+00 0.0000000000000000e+00  1.1069595517688480e+00 0.0000000000000000e+00 0.0000000000000000e+00  1.1009223119548071e+00 0.0000000000000000e+00 0.0000000000000000e+00  1.1394326093065956e+00 0.0000000000000000e+00 0.0000000000000000e+00  1.0772428952813411e+00 0.0000000000000000e+00 0.0000000000000000e+00  1.0429639591004458e+00 0.0000000000000000e+00 0.0000000000000000e+00  1.0000001318435561e+00 0.0000000000000000e+00 0.0000000000000000e+00  1.0205874647883708e+00 -5.1194091836798551e-02 0.0000000000000000e+00  1.0463174753792055e+00 8.6843934099178677e-02 0.0000000000000000e+00  1.2213435640190342e+00 -1.6666444743569330e-02 0.0000000000000000e+00  9.9436626864293487e-01 5.9653531013291062e-03 0.0000000000000000e+00  1.0955345786168915e+00 5.5822605402030122e-02 0.0000000000000000e+00  1.0224730141487963e+00 5.3830320648978823e-02 0.0000000000000000e+00  0.0000000000000000e+00 0.0000000000000000e+00 0.0000000000000000e+00  0.0000000000000000e+00 0.0000000000000000e+00 0.0000000000000000e+00  1.0000001318435561e+00 0.0000000000000000e+00 0.0000000000000000e+00  9.9930868604393852e-01 0.0000000000000000e+00 0.0000000000000000e+00  9.9878106000837996e-01 0.0000000000000000e+00 0.0000000000000000e+00  1.0008446390123031e+00 0.0000000000000000e+00 0.0000000000000000e+00  1.0006606191838079e+00 0.0000000000000000e+00 0.0000000000000000e+00  1.0015959774203929e+00 0.0000000000000000e+00 0.0000000000000000e+00  1.0018476239573697e+00 0.0000000000000000e+00 0.0000000000000000e+00  1.0020438358017003e+00 0.0000000000000000e+00 0.0000000000000000e+00  1.0027475733834788e+00 0.0000000000000000e+00 0.0000000000000000e+00  1.0038432174118228e+00 0.0000000000000000e+00 0.0000000000000000e+00  1.0048509290576770e+00 0.0000000000000000e+00 0.0000000000000000e+00  1.0062160339277788e+00 0.0000000000000000e+00 0.0000000000000000e+00  1.0083615658423344e+00 0.0000000000000000e+00 0.0000000000000000e+00  1.0106408828193785e+00 0.0000000000000000e+00 0.0000000000000000e+00  1.0145232450620649e+00 0.0000000000000000e+00 0.0000000000000000e+00  1.0162221494912957e+00 0.0000000000000000e+00 0.0000000000000000e+00  1.0207569485642747e+00 0.0000000000000000e+00 0.0000000000000000e+00  1.0274910979280352e+00 0.0000000000000000e+00 0.0000000000000000e+00  1.0329459646220283e+00 0.0000000000000000e+00 0.0000000000000000e+00  1.0491160250788083e+00 0.0000000000000000e+00 0.0000000000000000e+00  1.0578146960218611e+00 0.0000000000000000e+00 0.0000000000000000e+00  1.0660870315366797e+00 0.0000000000000000e+00 0.0000000000000000e+00  1.0749825393242773e+00 0.0000000000000000e+00 0.0000000000000000e+00  1.0825767119122793e+00 0.0000000000000000e+00 0.0000000000000000e+00  1.0896467979130238e+00 0.0000000000000000e+00 0.0000000000000000e+00  1.0964122331921771e+00 0.0000000000000000e+00 0.0000000000000000e+00  1.1006490679341583e+00 0.0000000000000000e+00 0.0000000000000000e+00  1.1039444391232822e+00 0.0000000000000000e+00 0.0000000000000000e+00  1.1053191450786555e+00 0.0000000000000000e+00 0.0000000000000000e+00  1.1052963503639543e+00 0.0000000000000000e+00 0.0000000000000000e+00  1.1024112487979187e+00 0.0000000000000000e+00 0.0000000000000000e+00  1.0987447546826348e+00 0.0000000000000000e+00 0.0000000000000000e+00  1.0931510329784317e+00 0.0000000000000000e+00 0.0000000000000000e+00  1.0862113880120869e+00 0.0000000000000000e+00 0.0000000000000000e+00  1.0789946752446162e+00 0.0000000000000000e+00 0.0000000000000000e+00  1.0717385673305153e+00 0.0000000000000000e+00 0.0000000000000000e+00  1.0655357645485923e+00 0.0000000000000000e+00 0.0000000000000000e+00  1.0606323095044581e+00 0.0000000000000000e+00 0.0000000000000000e+00  1.0577196676614453e+00 0.0000000000000000e+00 0.0000000000000000e+00  1.0582533514727561e+00 0.0000000000000000e+00 0.0000000000000000e+00  1.0613458906830338e+00 0.0000000000000000e+00 0.0000000000000000e+00  1.0647242904931999e+00 0.0000000000000000e+00 0.0000000000000000e+00  1.0692957628757820e+00 0.0000000000000000e+00 0.0000000000000000e+00  1.0730188467778921e+00 0.0000000000000000e+00 0.0000000000000000e+00  1.0747268620481676e+00 0.0000000000000000e+00 0.0000000000000000e+00  1.0744478709274994e+00 0.0000000000000000e+00 0.0000000000000000e+00  1.0711078767882360e+00 0.0000000000000000e+00 0.0000000000000000e+00  1.0659194866807229e+00 0.0000000000000000e+00 0.0000000000000000e+00  1.0600413973040541e+00 0.0000000000000000e+00 0.0000000000000000e+00  1.0536328339545717e+00 0.0000000000000000e+00 0.0000000000000000e+00  1.0484956963387970e+00 0.0000000000000000e+00 0.0000000000000000e+00  1.0471752880575143e+00 0.0000000000000000e+00 0.0000000000000000e+00  1.0476717080632190e+00 0.0000000000000000e+00 0.0000000000000000e+00  1.0508999259988427e+00 0.0000000000000000e+00 0.0000000000000000e+00  1.0577372656294519e+00 0.0000000000000000e+00 0.0000000000000000e+00  1.0651728671108815e+00 0.0000000000000000e+00 0.0000000000000000e+00  1.0726671821725644e+00 0.0000000000000000e+00 0.0000000000000000e+00  1.0804819681242299e+00 0.0000000000000000e+00 0.0000000000000000e+00  1.0849063006253694e+00 0.0000000000000000e+00 0.0000000000000000e+00  1.0859290911397577e+00 0.0000000000000000e+00 0.0000000000000000e+00  1.0845311516591853e+00 0.0000000000000000e+00 0.0000000000000000e+00  1.0800467528865729e+00 0.0000000000000000e+00 0.0000000000000000e+00  1.0744269306814573e+00 0.0000000000000000e+00 0.0000000000000000e+00  1.0697320668997858e+00 0.0000000000000000e+00 0.0000000000000000e+00  1.0657218547086129e+00 0.0000000000000000e+00 0.0000000000000000e+00  1.0640360233959572e+00 0.0000000000000000e+00 0.0000000000000000e+00  1.0678063273339056e+00 0.0000000000000000e+00 0.0000000000000000e+00  1.0723666487395622e+00 0.0000000000000000e+00 0.0000000000000000e+00  1.0776305676146325e+00 0.0000000000000000e+00 0.0000000000000000e+00  1.0853523111549737e+00 0.0000000000000000e+00 0.0000000000000000e+00  1.0945948222078448e+00 0.0000000000000000e+00 0.0000000000000000e+00  1.1019094012198232e+00 0.0000000000000000e+00 0.0000000000000000e+00  1.1086176402255341e+00 0.0000000000000000e+00 0.0000000000000000e+00  1.1061095195619208e+00 0.0000000000000000e+00 0.0000000000000000e+00  1.1008191493831230e+00 0.0000000000000000e+00 0.0000000000000000e+00  1.0953522678869376e+00 0.0000000000000000e+00 0.0000000000000000e+00  1.0900994681971108e+00 0.0000000000000000e+00 0.0000000000000000e+00  1.0863457815618929e+00 0.0000000000000000e+00 0.0000000000000000e+00  1.0855196353045427e+00 0.0000000000000000e+00 0.0000000000000000e+00  1.0880908402432041e+00 0.0000000000000000e+00 0.0000000000000000e+00  1.0936062963604987e+00 0.0000000000000000e+00 0.0000000000000000e+00  1.1006649785765574e+00 0.0000000000000000e+00 0.0000000000000000e+00  1.1092991665971708e+00 0.0000000000000000e+00 0.0000000000000000e+00  1.1171075320719603e+00 0.0000000000000000e+00 0.0000000000000000e+00  1.1229316996414525e+00 0.0000000000000000e+00 0.0000000000000000e+00  1.1265047182375765e+00 0.0000000000000000e+00 0.0000000000000000e+00  1.1266349143224330e+00 0.0000000000000000e+00 0.0000000000000000e+00  1.1240102106895660e+00 0.0000000000000000e+00 0.0000000000000000e+00  1.1173202964028950e+00 0.0000000000000000e+00 0.0000000000000000e+00  1.1092065687118002e+00 0.0000000000000000e+00 0.0000000000000000e+00  1.1003639778373837e+00 0.0000000000000000e+00 0.0000000000000000e+00  1.0934245251455119e+00 0.0000000000000000e+00 0.0000000000000000e+00  1.0887996947650269e+00 0.0000000000000000e+00 0.0000000000000000e+00  1.0888641900145497e+00 0.0000000000000000e+00 0.0000000000000000e+00  1.0924067043501866e+00 0.0000000000000000e+00 0.0000000000000000e+00  1.0997522375966917e+00 -1.0419020769492806e-02 0.0000000000000000e+00  1.0951440262956342e+00 -2.1819969814887551e-02 0.0000000000000000e+00  1.0864881969460516e+00 -3.4883520841632008e-02 0.0000000000000000e+00  1.0705558796705248e+00 -4.9739845754606528e-02 0.0000000000000000e+00  1.0506267029969707e+00 -7.0072118473621020e-02 0.0000000000000000e+00  1.0297397909771788e+00 -9.8582914554083384e-02 0.0000000000000000e+00  9.9734336284754577e-01 -1.3228797153037730e-01 0.0000000000000000e+00  9.4363570826556820e-01 -1.5443230837444327e-01 0.0000000000000000e+00  8.7564170184158585e-01 -1.6328873386565182e-01 0.0000000000000000e+00  8.0941396719841885e-01 -1.6284880330014812e-01 0.0000000000000000e+00  7.5836094228012507e-01 -1.6276376028503087e-01 0.0000000000000000e+00  7.2719708970601094e-01 -1.7097257839891808e-01 0.0000000000000000e+00  7.1907870352281467e-01 -1.9360801163593289e-01 0.0000000000000000e+00  7.5390245169824666e-01 -2.2360510833485378e-01 0.0000000000000000e+00  8.5341519957939704e-01 -2.2782264581415926e-01 0.0000000000000000e+00  9.8196060768403781e-01 -2.0380812027804304e-01 0.0000000000000000e+00  1.0923376006335743e+00 -1.6050227918524460e-01 0.0000000000000000e+00  1.1561661178429610e+00 -1.0471656011422439e-01 0.0000000000000000e+00  1.1694024211669343e+00 -6.4224086767175337e-02 0.0000000000000000e+00  1.1602577395490776e+00 -3.5306370244317688e-02 0.0000000000000000e+00  1.1516672059892661e+00 -2.0844258172517009e-02 0.0000000000000000e+00  1.1468151451801845e+00 -1.2680770169174597e-02 0.0000000000000000e+00  1.1418626089288586e+00 -6.1136492936992356e-03 0.0000000000000000e+00  1.1432668646807329e+00 0.0000000000000000e+00 0.0000000000000000e+00  1.1434930336935429e+00 0.0000000000000000e+00 0.0000000000000000e+00  1.1400523326935208e+00 0.0000000000000000e+00 0.0000000000000000e+00  1.1335698558207143e+00 0.0000000000000000e+00 0.0000000000000000e+00  1.1241951268184935e+00 0.0000000000000000e+00 0.0000000000000000e+00  1.1144359346551129e+00 0.0000000000000000e+00 0.0000000000000000e+00  1.1052436720723025e+00 0.0000000000000000e+00 0.0000000000000000e+00  1.0978075340077624e+00 0.0000000000000000e+00 0.0000000000000000e+00  1.0926647532463263e+00 0.0000000000000000e+00 0.0000000000000000e+00  1.0910537258935795e+00 0.0000000000000000e+00 0.0000000000000000e+00  1.0930719447743464e+00 0.0000000000000000e+00 0.0000000000000000e+00  1.0977187109557256e+00 0.0000000000000000e+00 0.0000000000000000e+00  1.1044920976156514e+00 0.0000000000000000e+00 0.0000000000000000e+00  1.1119447205673501e+00 0.0000000000000000e+00 0.0000000000000000e+00  1.1173979662093687e+00 0.0000000000000000e+00 0.0000000000000000e+00  1.1209382197656728e+00 0.0000000000000000e+00 0.0000000000000000e+00  1.1197722557141598e+00 0.0000000000000000e+00 0.0000000000000000e+00  1.1159800763093561e+00 0.0000000000000000e+00 0.0000000000000000e+00  1.1090865097500275e+00 0.0000000000000000e+00 0.0000000000000000e+00  1.1011145356580967e+00 0.0000000000000000e+00 0.0000000000000000e+00  1.0927780531337667e+00 0.0000000000000000e+00 0.0000000000000000e+00  1.0847740003392976e+00 0.0000000000000000e+00 0.0000000000000000e+00  1.0797245190395452e+00 0.0000000000000000e+00 0.0000000000000000e+00  1.0770129988037993e+00 0.0000000000000000e+00 0.0000000000000000e+00  1.0803069222643795e+00 0.0000000000000000e+00 0.0000000000000000e+00  1.0841138287569994e+00 0.0000000000000000e+00 0.0000000000000000e+00  1.0899022727684660e+00 0.0000000000000000e+00 0.0000000000000000e+00  1.0956025800014015e+00 0.0000000000000000e+00 0.0000000000000000e+00  1.0974307904931844e+00 0.0000000000000000e+00 0.0000000000000000e+00  1.0942130431109858e+00 0.0000000000000000e+00 0.0000000000000000e+00  1.0900799446881682e+00 0.0000000000000000e+00 0.0000000000000000e+00  1.0831756370619350e+00 0.0000000000000000e+00 0.0000000000000000e+00  1.0741736738562428e+00 0.0000000000000000e+00 0.0000000000000000e+00  1.0660517615620362e+00 0.0000000000000000e+00 0.0000000000000000e+00  1.0593656596064283e+00 0.0000000000000000e+00 0.0000000000000000e+00  1.0544164040909119e+00 0.0000000000000000e+00 0.0000000000000000e+00  1.0532295608196582e+00 0.0000000000000000e+00 0.0000000000000000e+00  1.0549886996304287e+00 0.0000000000000000e+00 0.0000000000000000e+00  1.0582700436245869e+00 0.0000000000000000e+00 0.0000000000000000e+00  1.0643619380342149e+00 0.0000000000000000e+00 0.0000000000000000e+00  1.0705699728656313e+00 0.0000000000000000e+00 0.0000000000000000e+00  1.0748617609883080e+00 0.0000000000000000e+00 0.0000000000000000e+00  1.0776510795782051e+00 0.0000000000000000e+00 0.0000000000000000e+00  1.0772777391623587e+00 0.0000000000000000e+00 0.0000000000000000e+00  1.0727566059506259e+00 0.0000000000000000e+00 0.0000000000000000e+00  1.0674131127182966e+00 0.0000000000000000e+00 0.0000000000000000e+00  1.0607981518713820e+00 0.0000000000000000e+00 0.0000000000000000e+00  1.0536489777973748e+00 0.0000000000000000e+00 0.0000000000000000e+00  1.0485868708264718e+00 0.0000000000000000e+00 0.0000000000000000e+00  1.0459296510941352e+00 0.0000000000000000e+00 0.0000000000000000e+00  1.0458324730639263e+00 0.0000000000000000e+00 0.0000000000000000e+00  1.0487580976294362e+00 0.0000000000000000e+00 0.0000000000000000e+00  1.0539515901762611e+00 0.0000000000000000e+00 0.0000000000000000e+00  1.0600673051677394e+00 0.0000000000000000e+00 0.0000000000000000e+00  1.0672938866236892e+00 0.0000000000000000e+00 0.0000000000000000e+00  1.0726203205572715e+00 0.0000000000000000e+00 0.0000000000000000e+00  1.0769345123529561e+00 0.0000000000000000e+00 0.0000000000000000e+00  1.0803283368719436e+00 0.0000000000000000e+00 0.0000000000000000e+00  1.0819057553579321e+00 0.0000000000000000e+00 0.0000000000000000e+00  1.0818809759945398e+00 0.0000000000000000e+00 0.0000000000000000e+00  1.0810682055496745e+00 0.0000000000000000e+00 0.0000000000000000e+00  1.0810410877510470e+00 0.0000000000000000e+00 0.0000000000000000e+00  1.0826867378963680e+00 0.0000000000000000e+00 0.0000000000000000e+00  1.0846389821759375e+00 0.0000000000000000e+00 0.0000000000000000e+00  1.0872699012348004e+00 0.0000000000000000e+00 0.0000000000000000e+00  1.0916812652844863e+00 0.0000000000000000e+00 0.0000000000000000e+00  1.0940597433153607e+00 0.0000000000000000e+00 0.0000000000000000e+00  1.0962246310886903e+00 0.0000000000000000e+00 0.0000000000000000e+00  1.0964010283275576e+00 0.0000000000000000e+00 0.0000000000000000e+00  1.0939882846361006e+00 0.0000000000000000e+00 0.0000000000000000e+00  1.0897157684950332e+00 0.0000000000000000e+00 0.0000000000000000e+00  1.0839837137895212e+00 0.0000000000000000e+00 0.0000000000000000e+00  1.0768966017868937e+00 0.0000000000000000e+00 0.0000000000000000e+00  1.0681546194738825e+00 0.0000000000000000e+00 0.0000000000000000e+00  1.0600613600789555e+00 0.0000000000000000e+00 0.0000000000000000e+00  1.0513063281461881e+00 0.0000000000000000e+00 0.0000000000000000e+00  1.0349140964914536e+00 0.0000000000000000e+00 0.0000000000000000e+00  1.0279666430731333e+00 0.0000000000000000e+00 0.0000000000000000e+00  1.0224846783100530e+00 0.0000000000000000e+00 0.0000000000000000e+00  1.0175871755856809e+00 0.0000000000000000e+00 0.0000000000000000e+00  1.0136001127571428e+00 0.0000000000000000e+00 0.0000000000000000e+00  1.0104492285583386e+00 0.0000000000000000e+00 0.0000000000000000e+00  1.0080314223790199e+00 0.0000000000000000e+00 0.0000000000000000e+00  1.0056918499502616e+00 0.0000000000000000e+00 0.0000000000000000e+00  1.0040481732338005e+00 0.0000000000000000e+00 0.0000000000000000e+00  1.0028704338531416e+00 0.0000000000000000e+00 0.0000000000000000e+00  1.0015583363367000e+00 0.0000000000000000e+00 0.0000000000000000e+00  1.0013025620572009e+00 0.0000000000000000e+00 0.0000000000000000e+00  1.0001768889482705e+00 0.0000000000000000e+00 0.0000000000000000e+00  1.0001178937872088e+00 0.0000000000000000e+00 0.0000000000000000e+00  9.9972194380273272e-01 0.0000000000000000e+00 0.0000000000000000e+00  1.0004156878421719e+00 0.0000000000000000e+00 0.0000000000000000e+00  1.0002100255548236e+00 0.0000000000000000e+00 0.0000000000000000e+00  9.9979017940472381e-01 0.0000000000000000e+00 0.0000000000000000e+00  1.0000001318435561e+00 0.0000000000000000e+00 0.0000000000000000e+00  1.0000001318435561e+00 0.0000000000000000e+00 0.0000000000000000e+00  1.0000001318435561e+00 0.0000000000000000e+00 0.0000000000000000e+00  1.0000001318435561e+00 0.0000000000000000e+00 0.0000000000000000e+00  1.0000001318435561e+00 0.0000000000000000e+00 0.0000000000000000e+00  1.0000001318435561e+00 0.0000000000000000e+00 0.0000000000000000e+00  1.0000001318435561e+00 0.0000000000000000e+00 0.0000000000000000e+00  1.0000001318435561e+00 0.0000000000000000e+00 0.0000000000000000e+00  1.0000001318435561e+00 0.0000000000000000e+00 0.0000000000000000e+00  1.0000001318435561e+00 0.0000000000000000e+00 0.0000000000000000e+00  1.0000001318435561e+00 0.0000000000000000e+00 0.0000000000000000e+00  1.0000001318435561e+00 0.0000000000000000e+00 0.0000000000000000e+00  1.0000001318435561e+00 0.0000000000000000e+00 0.0000000000000000e+00  1.0000001318435561e+00 0.0000000000000000e+00 0.0000000000000000e+00  1.0000001318435561e+00 0.0000000000000000e+00 0.0000000000000000e+00  1.0000001318435561e+00 0.0000000000000000e+00 0.0000000000000000e+00  1.0000001318435561e+00 0.0000000000000000e+00 0.0000000000000000e+00  1.0000001318435561e+00 0.0000000000000000e+00 0.0000000000000000e+00  1.0000001318435561e+00 0.0000000000000000e+00 0.0000000000000000e+00  1.0000001318435561e+00 0.0000000000000000e+00 0.0000000000000000e+00  1.0403117030981921e+00 -9.4889223028436966e-03 0.0000000000000000e+00  1.0372272420932716e+00 -1.9146309660807426e-02 0.0000000000000000e+00  1.0348705025844926e+00 -2.9550819180006700e-02 0.0000000000000000e+00  1.0290609107442710e+00 -4.0289285401998852e-02 0.0000000000000000e+00  1.0232178105010532e+00 -5.4832617497595368e-02 0.0000000000000000e+00  1.0276334304270358e+00 -5.8114299278282301e-02 0.0000000000000000e+00  1.0315982707636444e+00 -6.1463737557800109e-02 0.0000000000000000e+00  1.0365736387135518e+00 -6.4481906594011776e-02 0.0000000000000000e+00  1.0417615102865216e+00 -6.7343396015713305e-02 0.0000000000000000e+00  1.0475315187645937e+00 -6.9759622542102093e-02 0.0000000000000000e+00  1.0538281203114108e+00 -7.1819808152792680e-02 0.0000000000000000e+00  1.0604722566948890e+00 -7.3209215985932302e-02 0.0000000000000000e+00  1.0675623950399187e+00 -7.4043898952233414e-02 0.0000000000000000e+00  1.0746365222843290e+00 -7.3998239878480879e-02 0.0000000000000000e+00  1.0819239898715223e+00 -7.3351443681602985e-02 0.0000000000000000e+00  1.0890692069759178e+00 -7.2012895142904529e-02 0.0000000000000000e+00  1.0961686040562171e+00 -6.9662229262941230e-02 0.0000000000000000e+00  1.1027151608150132e+00 -6.6484930808290391e-02 0.0000000000000000e+00  1.1087689763698454e+00 -6.2815957270101419e-02 0.0000000000000000e+00  1.1142018032597429e+00 -5.8556594330867462e-02 0.0000000000000000e+00  1.1188345542440608e+00 -5.3878248221530652e-02 0.0000000000000000e+00  1.1226376184631039e+00 -4.8924885299550663e-02 0.0000000000000000e+00  1.1257012420068904e+00 -4.3986003399621332e-02 0.0000000000000000e+00  1.1279727351953066e+00 -3.8944557411591266e-02 0.0000000000000000e+00  1.1295614412974426e+00 -3.4416832469102897e-02 0.0000000000000000e+00  1.1305498503557148e+00 -2.9924581789705362e-02 0.0000000000000000e+00  1.1310342905060664e+00 -2.5912133599740036e-02 0.0000000000000000e+00  1.1313393142595389e+00 -2.2534733730740043e-02 0.0000000000000000e+00  1.1314650999773876e+00 -1.9687507855632235e-02 0.0000000000000000e+00  1.1316251394355716e+00 -1.7319094739980220e-02 0.0000000000000000e+00  1.1319686852340995e+00 -1.5246800676269157e-02 0.0000000000000000e+00  1.1326865306824878e+00 -1.3492519243409405e-02 0.0000000000000000e+00  1.1337147465641237e+00 -1.1787638197034697e-02 0.0000000000000000e+00  1.1352688250433927e+00 -9.9464664685152727e-03 0.0000000000000000e+00  1.1372348386271380e+00 -7.8375282357201741e-03 0.0000000000000000e+00  1.1395148202498242e+00