<?xml version="1.0"?>
<VTKFile type="UnstructuredGrid"  version="0.1"  >
<UnstructuredGrid>
<Piece  NumberOfPoints="10199" NumberOfCells="20110">
<Points>
<DataArray  type="Float64"  NumberOfComponents="3"  format="ascii">0 -5 0  8 -5 0  30 -5 0  40 -5 0  40 5 0  30 5 0  8 5 0  0 5 0  8 -2.5 0  15 -2.5 0  30 -2.5 0  30 2.5 0  15 2.5 0  8 2.5 0  10 0.5 0  10 -0.5 0  0 0 0  0.4210526315780956 -5 0  0.8421052631563433 -5 0  1.263157894734281 -5 0  1.684210526311999 -5 0  2.105263157889717 -5 0  2.526315789467435 -5 0  2.947368421045153 -5 0  3.368421052622872 -5 0  3.78947368420059 -5 0  4.210526315779479 -5 0  4.631578947359537 -5 0  5.052631578939595 -5 0  5.473684210519653 -5 0  5.89473684209971 -5 0  6.315789473679768 -5 0  6.736842105259826 -5 0  7.157894736839884 -5 0  7.578947368419942 -5 0  8.407407407405314 -5 0  8.814814814810628 -5 0  9.222222222215942 -5 0  9.629629629621256 -5 0  10.03703703702657 -5 0  10.44444444443188 -5 0  10.8518518518372 -5 0  11.25925925924251 -5 0  11.66666666664783 -5 0  12.07407407405314 -5 0  12.48148148145846 -5 0  12.88888888886377 -5 0  13.29629629626908 -5 0  13.7037037036744 -5 0  14.11111111107971 -5 0  14.51851851848502 -5 0  14.92592592589034 -5 0  15.33333333329565 -5 0  15.74074074070096 -5 0  16.14814814810754 -5 0  16.55555555551614 -5 0  16.96296296292474 -5 0  17.37037037033335 -5 0  17.77777777774195 -5 0  18.18518518515056 -5 0  18.59259259255916 -5 0  18.99999999996776 -5 0  19.40740740737636 -5 0  19.81481481478497 -5 0  20.22222222219357 -5 0  20.62962962960217 -5 0  21.03703703701077 -5 0  21.44444444441937 -5 0  21.85185185182797 -5 0  22.25925925923657 -5 0  22.66666666664518 -5 0  23.07407407405378 -5 0  23.48148148146238 -5 0  23.88888888887098 -5 0  24.29629629627958 -5 0  24.70370370368818 -5 0  25.11111111109678 -5 0  25.51851851850539 -5 0  25.92592592591399 -5 0  26.33333333332259 -5 0  26.74074074073119 -5 0  27.14814814813979 -5 0  27.55555555554839 -5 0  27.96296296295699 -5 0  28.3703703703656 -5 0  28.7777777777742 -5 0  29.1851851851828 -5 0  29.5925925925914 -5 0  30.41666666667852 -5 0  30.83333333335704 -5 0  31.25000000003556 -5 0  31.66666666671408 -5 0  32.08333333338936 -5 0  32.50000000005308 -5 0  32.9166666667168 -5 0  33.33333333338052 -5 0  33.75000000004424 -5 0  34.16666666670795 -5 0  34.58333333337167 -5 0  35.00000000003539 -5 0  35.41666666669911 -5 0  35.83333333336282 -5 0  36.25000000002654 -5 0  36.66666666669026 -5 0  37.08333333335398 -5 0  37.50000000001769 -5 0  37.91666666668141 -5 0  38.33333333334513 -5 0  38.75000000000885 -5 0  39.16666666667257 -5 0  39.58333333333628 -5 0  40 -4.583333333332821 0  40 -4.166666666665642 0  40 -3.74999999999855 0  40 -3.333333333333135 0  40 -2.916666666667806 0  40 -2.500000000002478 0  40 -2.083333333337148 0  40 -1.666666666671818 0  40 -1.250000000006488 0  40 -0.8333333333405228 0  40 -0.4166666666733416 0  40 -6.163070054299169e-12 0  40 0.4166666666610173 0  40 0.8333333333281976 0  40 1.249999999995378 0  40 1.666666666662558 0  40 2.083333333329739 0  40 2.499999999996919 0  40 2.916666666664099 0  40 3.33333333333128 0  40 3.74999999999846 0  40 4.166666666665641 0  40 4.583333333332821 0  39.58333333333628 5 0  39.16666666667256 5 0  38.75000000000885 5 0  38.33333333334513 5 0  37.91666666668141 5 0  37.50000000001769 5 0  37.08333333335398 5 0  36.66666666669025 5 0  36.25000000002654 5 0  35.83333333336282 5 0  35.41666666669911 5 0  35.00000000003539 5 0  34.58333333337167 5 0  34.16666666670795 5 0  33.75000000004424 5 0  33.33333333338052 5 0  32.9166666667168 5 0  32.50000000005308 5 0  32.08333333338936 5 0  31.66666666671408 5 0  31.25000000003556 5 0  30.83333333335704 5 0  30.41666666667852 5 0  29.59259259259259 5 0  29.18518518518519 5 0  28.77777777777778 5 0  28.37037037037037 5 0  27.96296296296296 5 0  27.55555555555556 5 0  27.14814814814815 5 0  26.74074074074074 5 0  26.33333333333333 5 0  25.92592592592593 5 0  25.51851851851852 5 0  25.11111111111111 5 0  24.7037037037037 5 0  24.2962962962963 5 0  23.88888888888889 5 0  23.48148148148148 5 0  23.07407407407408 5 0  22.66666666666667 5 0  22.25925925925926 5 0  21.85185185185185 5 0  21.44444444444445 5 0  21.03703703703704 5 0  20.62962962962963 5 0  20.22222222222222 5 0  19.81481481481482 5 0  19.40740740740741 5 0  19 5 0  18.5925925925926 5 0  18.18518518518519 5 0  17.77777777777778 5 0  17.37037037037037 5 0  16.96296296296296 5 0  16.55555555555556 5 0  16.14814814814815 5 0  15.74074074074074 5 0  15.33333333333333 5 0  14.92592592592593 5 0  14.51851851851852 5 0  14.11111111111111 5 0  13.70370370370371 5 0  13.2962962962963 5 0  12.88888888888889 5 0  12.48148148148148 5 0  12.07407407407408 5 0  11.66666666666667 5 0  11.25925925925926 5 0  10.85185185185185 5 0  10.44444444444445 5 0  10.03703703703704 5 0  9.629629629629633 5 0  9.222222222222221 5 0  8.814814814814817 5 0  8.407407407407408 5 0  7.5789473684193 5 0  7.157894736838599 5 0  6.73684210526082 5 0  6.315789473684795 5 0  5.894736842108769 5 0  5.473684210532742 5 0  5.052631578956715 5 0  4.631578947380689 5 0  4.210526315804662 5 0  3.789473684226299 5 0  3.368421052645599 5 0  2.947368421064898 5 0  2.526315789484198 5 0  2.105263157903499 5 0  1.6842105263228 5 0  1.2631578947421 5 0  0.8421052631613994 5 0  0.4210526315806993 5 0  0 4.545454545454545 0  0 4.09090909090909 0  0 3.636363636363634 0  0 3.18181818181818 0  0 2.727272727272726 0  0 2.272727272727271 0  0 1.818181818181817 0  0 1.363636363636363 0  0 0.9090909090909092 0  0 0.454545454545455 0  0 -0.4545454545450807 0  0 -0.9090909090895867 0  0 -1.363636363633713 0  0 -1.818181818177841 0  0 -2.272727272723127 0  0 -2.727272727269273 0  0 -3.181818181815419 0  0 -3.636363636361564 0  0 -4.090909090907709 0  0 -4.545454545453855 0  8 -4.499999999999999 0  8 -3.999999999999999 0  8 -3.499999999999999 0  8 -3 0  8.137254901963859 -2.5 0  8.274509803926303 -2.5 0  8.411764705886863 -2.5 0  8.549019607849138 -2.5 0  8.686274509809513 -2.5 0  8.82352941176989 -2.5 0  8.960784313730265 -2.5 0  9.098039215690642 -2.5 0  9.235294117651017 -2.5 0  9.372549019611395 -2.5 0  9.50980392157177 -2.5 0  9.647058823532147 -2.5 0  9.784313725492522 -2.5 0  9.921568627452897 -2.5 0  10.05882352941327 -2.5 0  10.19607843137365 -2.5 0  10.33333333333402 -2.5 0  10.4705882352944 -2.5 0  10.60784313725478 -2.5 0  10.74509803921515 -2.5 0  10.88235294117553 -2.5 0  11.0196078431359 -2.5 0  11.15686274509628 -2.5 0  11.29411764705665 -2.5 0  11.43137254901703 -2.5 0  11.56862745097915 -2.5 0  11.70588235294301 -2.5 0  11.84313725490686 -2.5 0  11.98039215687072 -2.5 0  12.11764705883209 -2.5 0  12.25490196079247 -2.5 0  12.39215686275285 -2.5 0  12.52941176471322 -2.5 0  12.6666666666736 -2.5 0  12.80392156863397 -2.5 0  12.94117647059435 -2.5 0  13.07843137255473 -2.5 0  13.2156862745151 -2.5 0  13.35294117647548 -2.5 0  13.49019607843586 -2.5 0  13.62745098039623 -2.5 0  13.76470588235661 -2.5 0  13.90196078431699 -2.5 0  14.03921568627736 -2.5 0  14.17647058823774 -2.5 0  14.31372549019812 -2.5 0  14.45098039215849 -2.5 0  14.58823529411887 -2.5 0  14.72549019607925 -2.5 0  14.86274509803962 -2.5 0  15.20270270270254 -2.5 0  15.40540540540509 -2.5 0  15.60810810810763 -2.5 0  15.81081081081017 -2.5 0  16.01351351351227 -2.5 0  16.21621621621265 -2.5 0  16.41891891891279 -2.5 0  16.62162162161294 -2.5 0  16.82432432431308 -2.5 0  17.02702702701322 -2.5 0  17.22972972971337 -2.5 0  17.43243243241351 -2.5 0  17.63513513511365 -2.5 0  17.83783783781379 -2.5 0  18.04054054051394 -2.5 0  18.24324324321408 -2.5 0  18.44594594591422 -2.5 0  18.64864864861436 -2.5 0  18.85135135131451 -2.5 0  19.05405405401465 -2.5 0  19.25675675671479 -2.5 0  19.45945945941494 -2.5 0  19.66216216211508 -2.5 0  19.86486486481522 -2.5 0  20.06756756751536 -2.5 0  20.27027027021551 -2.5 0  20.47297297291565 -2.5 0  20.6756756756158 -2.5 0  20.87837837831594 -2.5 0  21.08108108101608 -2.5 0  21.28378378371622 -2.5 0  21.48648648641637 -2.5 0  21.68918918911651 -2.5 0  21.89189189181666 -2.5 0  22.0945945945168 -2.5 0  22.29729729721694 -2.5 0  22.49999999991778 -2.5 0  22.70270270262203 -2.5 0  22.90540540532697 -2.5 0  23.10810810803191 -2.5 0  23.31081081073686 -2.5 0  23.5135135134418 -2.5 0  23.71621621614674 -2.5 0  23.91891891885169 -2.5 0  24.12162162155663 -2.5 0  24.32432432426158 -2.5 0  24.52702702696652 -2.5 0  24.72972972967146 -2.5 0  24.93243243237641 -2.5 0  25.13513513508135 -2.5 0  25.3378378377863 -2.5 0  25.54054054049124 -2.5 0  25.74324324319618 -2.5 0  25.94594594590112 -2.5 0  26.14864864860607 -2.5 0  26.35135135131101 -2.5 0  26.55405405401596 -2.5 0  26.7567567567209 -2.5 0  26.95945945942584 -2.5 0  27.16216216213079 -2.5 0  27.36486486483573 -2.5 0  27.56756756754068 -2.5 0  27.77027027024562 -2.5 0  27.97297297295056 -2.5 0  28.1756756756555 -2.5 0  28.37837837836045 -2.5 0  28.5810810810654 -2.5 0  28.78378378377034 -2.5 0  28.98648648647528 -2.5 0  29.18918918918023 -2.5 0  29.39189189188517 -2.5 0  29.59459459459011 -2.5 0  29.79729729729506 -2.5 0  30 -3.000000000000001 0  30 -3.500000000000001 0  30 -4.000000000000001 0  30 -4.5 0  8 4.499999999999999 0  8 3.999999999999999 0  8 3.499999999999999 0  8 3 0  8.137254901963859 2.5 0  8.274509803926303 2.5 0  8.411764705886863 2.5 0  8.549019607849138 2.5 0  8.686274509809513 2.5 0  8.82352941176989 2.5 0  8.960784313730265 2.5 0  9.098039215690642 2.5 0  9.235294117651017 2.5 0  9.372549019611395 2.5 0  9.50980392157177 2.5 0  9.647058823532147 2.5 0  9.784313725492522 2.5 0  9.921568627452897 2.5 0  10.05882352941327 2.5 0  10.19607843137365 2.5 0  10.33333333333402 2.5 0  10.4705882352944 2.5 0  10.60784313725478 2.5 0  10.74509803921515 2.5 0  10.88235294117553 2.5 0  11.0196078431359 2.5 0  11.15686274509628 2.5 0  11.29411764705665 2.5 0  11.43137254901703 2.5 0  11.56862745097915 2.5 0  11.70588235294301 2.5 0  11.84313725490686 2.5 0  11.98039215687072 2.5 0  12.11764705883209 2.5 0  12.25490196079247 2.5 0  1
[...]
<PointData  Vectors="f_17"> 
<DataArray  type="Float64"  Name="f_17"  NumberOfComponents="3" format="ascii">1.0000001298994219e+00 0.0000000000000000e+00 0.0000000000000000e+00  1.0425362377086957e+00 0.0000000000000000e+00 0.0000000000000000e+00  1.0614349911428522e+00 0.0000000000000000e+00 0.0000000000000000e+00  1.1056934362857993e+00 0.0000000000000000e+00 0.0000000000000000e+00  1.1233786071871088e+00 0.0000000000000000e+00 0.0000000000000000e+00  1.0750617299504790e+00 0.0000000000000000e+00 0.0000000000000000e+00  1.0387886409512719e+00 0.0000000000000000e+00 0.0000000000000000e+00  1.0000001298994219e+00 0.0000000000000000e+00 0.0000000000000000e+00  1.0230062418446195e+00 -5.2721008305662106e-02 0.0000000000000000e+00  1.0890498853434356e+00 -5.8760419705951999e-02 0.0000000000000000e+00  1.0214212576035493e+00 -5.9305608928635213e-02 0.0000000000000000e+00  1.1204695211999098e+00 -5.3978884048780373e-02 0.0000000000000000e+00  1.0349467801951855e+00 -8.6095136043848955e-02 0.0000000000000000e+00  1.0198243297564638e+00 4.9388696300534309e-02 0.0000000000000000e+00  0.0000000000000000e+00 0.0000000000000000e+00 0.0000000000000000e+00  0.0000000000000000e+00 0.0000000000000000e+00 0.0000000000000000e+00  1.0000001298994219e+00 0.0000000000000000e+00 0.0000000000000000e+00  9.9928056971786794e-01 0.0000000000000000e+00 0.0000000000000000e+00  9.9869588639697537e-01 0.0000000000000000e+00 0.0000000000000000e+00  1.0007543060853581e+00 0.0000000000000000e+00 0.0000000000000000e+00  1.0005630470285118e+00 0.0000000000000000e+00 0.0000000000000000e+00  1.0015652501494550e+00 0.0000000000000000e+00 0.0000000000000000e+00  1.0019311069231081e+00 0.0000000000000000e+00 0.0000000000000000e+00  1.0023151088056141e+00 0.0000000000000000e+00 0.0000000000000000e+00  1.0032517825861986e+00 0.0000000000000000e+00 0.0000000000000000e+00  1.0045807435062890e+00 0.0000000000000000e+00 0.0000000000000000e+00  1.0058150264800996e+00 0.0000000000000000e+00 0.0000000000000000e+00  1.0073634630979440e+00 0.0000000000000000e+00 0.0000000000000000e+00  1.0096644120828084e+00 0.0000000000000000e+00 0.0000000000000000e+00  1.0120455695749300e+00 0.0000000000000000e+00 0.0000000000000000e+00  1.0159711975308281e+00 0.0000000000000000e+00 0.0000000000000000e+00  1.0176910988731973e+00 0.0000000000000000e+00 0.0000000000000000e+00  1.0222410728029245e+00 0.0000000000000000e+00 0.0000000000000000e+00  1.0290130092394676e+00 0.0000000000000000e+00 0.0000000000000000e+00  1.0344881051437962e+00 0.0000000000000000e+00 0.0000000000000000e+00  1.0506294105732836e+00 0.0000000000000000e+00 0.0000000000000000e+00  1.0591214747419808e+00 0.0000000000000000e+00 0.0000000000000000e+00  1.0669397035304495e+00 0.0000000000000000e+00 0.0000000000000000e+00  1.0750050883624223e+00 0.0000000000000000e+00 0.0000000000000000e+00  1.0811920538709474e+00 0.0000000000000000e+00 0.0000000000000000e+00  1.0861474185971056e+00 0.0000000000000000e+00 0.0000000000000000e+00  1.0900334753265917e+00 0.0000000000000000e+00 0.0000000000000000e+00  1.0906835735960350e+00 0.0000000000000000e+00 0.0000000000000000e+00  1.0899462299690827e+00 0.0000000000000000e+00 0.0000000000000000e+00  1.0873859472046594e+00 0.0000000000000000e+00 0.0000000000000000e+00  1.0841904902097184e+00 0.0000000000000000e+00 0.0000000000000000e+00  1.0797235842735149e+00 0.0000000000000000e+00 0.0000000000000000e+00  1.0767702288613705e+00 0.0000000000000000e+00 0.0000000000000000e+00  1.0746321851852672e+00 0.0000000000000000e+00 0.0000000000000000e+00  1.0735020218848013e+00 0.0000000000000000e+00 0.0000000000000000e+00  1.0737224875705453e+00 0.0000000000000000e+00 0.0000000000000000e+00  1.0742554372184940e+00 0.0000000000000000e+00 0.0000000000000000e+00  1.0744912733626790e+00 0.0000000000000000e+00 0.0000000000000000e+00  1.0732437590029495e+00 0.0000000000000000e+00 0.0000000000000000e+00  1.0699730701637578e+00 0.0000000000000000e+00 0.0000000000000000e+00  1.0660131983118184e+00 0.0000000000000000e+00 0.0000000000000000e+00  1.0609730664107975e+00 0.0000000000000000e+00 0.0000000000000000e+00  1.0539694535888486e+00 0.0000000000000000e+00 0.0000000000000000e+00  1.0481433997018987e+00 0.0000000000000000e+00 0.0000000000000000e+00  1.0433653674874901e+00 0.0000000000000000e+00 0.0000000000000000e+00  1.0406335908230389e+00 0.0000000000000000e+00 0.0000000000000000e+00  1.0408581621905015e+00 0.0000000000000000e+00 0.0000000000000000e+00  1.0432552425723294e+00 0.0000000000000000e+00 0.0000000000000000e+00  1.0477389447968484e+00 0.0000000000000000e+00 0.0000000000000000e+00  1.0538694155987249e+00 0.0000000000000000e+00 0.0000000000000000e+00  1.0591206075005544e+00 0.0000000000000000e+00 0.0000000000000000e+00  1.0630496158499392e+00 0.0000000000000000e+00 0.0000000000000000e+00  1.0663371836093605e+00 0.0000000000000000e+00 0.0000000000000000e+00  1.0660108866100910e+00 0.0000000000000000e+00 0.0000000000000000e+00  1.0631816704150183e+00 0.0000000000000000e+00 0.0000000000000000e+00  1.0596517692764005e+00 0.0000000000000000e+00 0.0000000000000000e+00  1.0548062900746653e+00 0.0000000000000000e+00 0.0000000000000000e+00  1.0503784740321465e+00 0.0000000000000000e+00 0.0000000000000000e+00  1.0490257916499637e+00 0.0000000000000000e+00 0.0000000000000000e+00  1.0487770641200316e+00 0.0000000000000000e+00 0.0000000000000000e+00  1.0507105686242995e+00 0.0000000000000000e+00 0.0000000000000000e+00  1.0553567188257824e+00 0.0000000000000000e+00 0.0000000000000000e+00  1.0604051444201896e+00 0.0000000000000000e+00 0.0000000000000000e+00  1.0654990782696059e+00 0.0000000000000000e+00 0.0000000000000000e+00  1.0703353929205146e+00 0.0000000000000000e+00 0.0000000000000000e+00  1.0724570791851902e+00 0.0000000000000000e+00 0.0000000000000000e+00  1.0719891254420548e+00 0.0000000000000000e+00 0.0000000000000000e+00  1.0719167537190437e+00 0.0000000000000000e+00 0.0000000000000000e+00  1.0684629432533517e+00 0.0000000000000000e+00 0.0000000000000000e+00  1.0628316853847519e+00 0.0000000000000000e+00 0.0000000000000000e+00  1.0590402947121209e+00 0.0000000000000000e+00 0.0000000000000000e+00  1.0583342405804810e+00 0.0000000000000000e+00 0.0000000000000000e+00  1.0586836615740056e+00 0.0000000000000000e+00 0.0000000000000000e+00  1.0655388790218365e+00 0.0000000000000000e+00 0.0000000000000000e+00  1.0696028803619082e+00 0.0000000000000000e+00 0.0000000000000000e+00  1.0735841222024338e+00 0.0000000000000000e+00 0.0000000000000000e+00  1.0774829129346666e+00 0.0000000000000000e+00 0.0000000000000000e+00  1.0795895682389021e+00 0.0000000000000000e+00 0.0000000000000000e+00  1.0794867247106501e+00 0.0000000000000000e+00 0.0000000000000000e+00  1.0775737151991442e+00 0.0000000000000000e+00 0.0000000000000000e+00  1.0751514884229207e+00 0.0000000000000000e+00 0.0000000000000000e+00  1.0725750390515469e+00 0.0000000000000000e+00 0.0000000000000000e+00  1.0706137831675751e+00 0.0000000000000000e+00 0.0000000000000000e+00  1.0707301123860129e+00 0.0000000000000000e+00 0.0000000000000000e+00  1.0728702743024117e+00 0.0000000000000000e+00 0.0000000000000000e+00  1.0763847905699013e+00 0.0000000000000000e+00 0.0000000000000000e+00  1.0815964493785939e+00 0.0000000000000000e+00 0.0000000000000000e+00  1.0869116710698361e+00 0.0000000000000000e+00 0.0000000000000000e+00  1.0921398748399695e+00 0.0000000000000000e+00 0.0000000000000000e+00  1.0949335078098770e+00 0.0000000000000000e+00 0.0000000000000000e+00  1.0967540659056652e+00 0.0000000000000000e+00 0.0000000000000000e+00  1.0969115591752210e+00 0.0000000000000000e+00 0.0000000000000000e+00  1.0972014750400458e+00 0.0000000000000000e+00 0.0000000000000000e+00  1.0970079424334962e+00 0.0000000000000000e+00 0.0000000000000000e+00  1.0985370834348547e+00 0.0000000000000000e+00 0.0000000000000000e+00  1.1007548364854387e+00 0.0000000000000000e+00 0.0000000000000000e+00  1.1053007040160521e+00 -5.6798473649467395e-03 0.0000000000000000e+00  1.1029000446920196e+00 -1.1609449511890701e-02 0.0000000000000000e+00  1.0972210199835180e+00 -1.7844285443315951e-02 0.0000000000000000e+00  1.0837035678341151e+00 -2.4308870308192853e-02 0.0000000000000000e+00  1.0606597502746051e+00 -3.2294096084401591e-02 0.0000000000000000e+00  1.0236850434748641e+00 -3.9631008146667673e-02 0.0000000000000000e+00  9.7270750630639391e-01 -5.6692215323887934e-02 0.0000000000000000e+00  9.0642278096646378e-01 -7.5892095539194487e-02 0.0000000000000000e+00  8.2175394722912565e-01 -9.3789984735082724e-02 0.0000000000000000e+00  7.3400722226778836e-01 -1.0985633691625982e-01 0.0000000000000000e+00  6.6399343054793358e-01 -1.1911205439498755e-01 0.0000000000000000e+00  6.3440351305814457e-01 -1.2030013996644361e-01 0.0000000000000000e+00  6.7202200290078717e-01 -1.1053393497489346e-01 0.0000000000000000e+00  7.8735398943101376e-01 -9.5656384191850491e-02 0.0000000000000000e+00  9.5377353737689896e-01 -6.2767632660024372e-02 0.0000000000000000e+00  1.1073406521968561e+00 -3.1379628409654491e-02 0.0000000000000000e+00  1.1972010104497000e+00 -1.0571846242877740e-02 0.0000000000000000e+00  1.2179558986999894e+00 3.6418188141560271e-03 0.0000000000000000e+00  1.1920231986913843e+00 5.1130422836638536e-03 0.0000000000000000e+00  1.1597078777642991e+00 5.8545240723347474e-03 0.0000000000000000e+00  1.1400373254414717e+00 5.1544056490706062e-03 0.0000000000000000e+00  1.1308077344638559e+00 3.9209494352551834e-03 0.0000000000000000e+00  1.1255002222358126e+00 1.9428932312506209e-03 0.0000000000000000e+00  1.1199820321821845e+00 0.0000000000000000e+00 0.0000000000000000e+00  1.1145638843754198e+00 0.0000000000000000e+00 0.0000000000000000e+00  1.1074946892722506e+00 0.0000000000000000e+00 0.0000000000000000e+00  1.1002553331498643e+00 0.0000000000000000e+00 0.0000000000000000e+00  1.0929988747655572e+00 0.0000000000000000e+00 0.0000000000000000e+00  1.0878323851364238e+00 0.0000000000000000e+00 0.0000000000000000e+00  1.0847627543648446e+00 0.0000000000000000e+00 0.0000000000000000e+00  1.0840997517223605e+00 0.0000000000000000e+00 0.0000000000000000e+00  1.0843078989839747e+00 0.0000000000000000e+00 0.0000000000000000e+00  1.0856606345718802e+00 0.0000000000000000e+00 0.0000000000000000e+00  1.0868022626555891e+00 0.0000000000000000e+00 0.0000000000000000e+00  1.0870313718559896e+00 0.0000000000000000e+00 0.0000000000000000e+00  1.0858430251042370e+00 0.0000000000000000e+00 0.0000000000000000e+00  1.0837554505325580e+00 0.0000000000000000e+00 0.0000000000000000e+00  1.0793179111316762e+00 0.0000000000000000e+00 0.0000000000000000e+00  1.0751818746105766e+00 0.0000000000000000e+00 0.0000000000000000e+00  1.0696959405561313e+00 0.0000000000000000e+00 0.0000000000000000e+00  1.0657567943076696e+00 0.0000000000000000e+00 0.0000000000000000e+00  1.0634111712218561e+00 0.0000000000000000e+00 0.0000000000000000e+00  1.0637298171525538e+00 0.0000000000000000e+00 0.0000000000000000e+00  1.0656457020776107e+00 0.0000000000000000e+00 0.0000000000000000e+00  1.0686705897225246e+00 0.0000000000000000e+00 0.0000000000000000e+00  1.0723321998871067e+00 0.0000000000000000e+00 0.0000000000000000e+00  1.0753414208973013e+00 0.0000000000000000e+00 0.0000000000000000e+00  1.0742947274389361e+00 0.0000000000000000e+00 0.0000000000000000e+00  1.0703088108011813e+00 0.0000000000000000e+00 0.0000000000000000e+00  1.0664192700002033e+00 0.0000000000000000e+00 0.0000000000000000e+00  1.0628523267097654e+00 0.0000000000000000e+00 0.0000000000000000e+00  1.0586836130819792e+00 0.0000000000000000e+00 0.0000000000000000e+00  1.0539160786576509e+00 0.0000000000000000e+00 0.0000000000000000e+00  1.0534011402983956e+00 0.0000000000000000e+00 0.0000000000000000e+00  1.0548775770530199e+00 0.0000000000000000e+00 0.0000000000000000e+00  1.0572883894804019e+00 0.0000000000000000e+00 0.0000000000000000e+00  1.0613583238601956e+00 0.0000000000000000e+00 0.0000000000000000e+00  1.0654708574398082e+00 0.0000000000000000e+00 0.0000000000000000e+00  1.0678308836738974e+00 0.0000000000000000e+00 0.0000000000000000e+00  1.0689616368711050e+00 0.0000000000000000e+00 0.0000000000000000e+00  1.0674560656269705e+00 0.0000000000000000e+00 0.0000000000000000e+00  1.0628488833767673e+00 0.0000000000000000e+00 0.0000000000000000e+00  1.0578899543037301e+00 0.0000000000000000e+00 0.0000000000000000e+00  1.0523454026599026e+00 0.0000000000000000e+00 0.0000000000000000e+00  1.0464919476750725e+00 0.0000000000000000e+00 0.0000000000000000e+00  1.0433566758075818e+00 0.0000000000000000e+00 0.0000000000000000e+00  1.0423314208994257e+00 0.0000000000000000e+00 0.0000000000000000e+00  1.0426926537199817e+00 0.0000000000000000e+00 0.0000000000000000e+00  1.0467051033263632e+00 0.0000000000000000e+00 0.0000000000000000e+00  1.0520000542326930e+00 0.0000000000000000e+00 0.0000000000000000e+00  1.0569534521205530e+00 0.0000000000000000e+00 0.0000000000000000e+00  1.0615237625393656e+00 0.0000000000000000e+00 0.0000000000000000e+00  1.0644967697487004e+00 0.0000000000000000e+00 0.0000000000000000e+00  1.0647523618917436e+00 0.0000000000000000e+00 0.0000000000000000e+00  1.0631506155215902e+00 0.0000000000000000e+00 0.0000000000000000e+00  1.0597470085496967e+00 0.0000000000000000e+00 0.0000000000000000e+00  1.0553620927936946e+00 0.0000000000000000e+00 0.0000000000000000e+00  1.0520539961786439e+00 0.0000000000000000e+00 0.0000000000000000e+00  1.0490485590558629e+00 0.0000000000000000e+00 0.0000000000000000e+00  1.0485652778460561e+00 0.0000000000000000e+00 0.0000000000000000e+00  1.0512986166013074e+00 0.0000000000000000e+00 0.0000000000000000e+00  1.0562194802785145e+00 0.0000000000000000e+00 0.0000000000000000e+00  1.0623776632383177e+00 0.0000000000000000e+00 0.0000000000000000e+00  1.0691926181043387e+00 0.0000000000000000e+00 0.0000000000000000e+00  1.0765719325839405e+00 0.0000000000000000e+00 0.0000000000000000e+00  1.0841736544982932e+00 0.0000000000000000e+00 0.0000000000000000e+00  1.0899009259471426e+00 0.0000000000000000e+00 0.0000000000000000e+00  1.0938370632469419e+00 0.0000000000000000e+00 0.0000000000000000e+00  1.0974936030864231e+00 0.0000000000000000e+00 0.0000000000000000e+00  1.0977155901308531e+00 0.0000000000000000e+00 0.0000000000000000e+00  1.0971595902968383e+00 0.0000000000000000e+00 0.0000000000000000e+00  1.0946454340963538e+00 0.0000000000000000e+00 0.0000000000000000e+00  1.0900617832093868e+00 0.0000000000000000e+00 0.0000000000000000e+00  1.0843407386678148e+00 0.0000000000000000e+00 0.0000000000000000e+00  1.0778688308326472e+00 0.0000000000000000e+00 0.0000000000000000e+00  1.0706398318177646e+00 0.0000000000000000e+00 0.0000000000000000e+00  1.0622182161894453e+00 0.0000000000000000e+00 0.0000000000000000e+00  1.0546318064494693e+00 0.0000000000000000e+00 0.0000000000000000e+00  1.0465027648010050e+00 0.0000000000000000e+00 0.0000000000000000e+00  1.0313538875220292e+00 0.0000000000000000e+00 0.0000000000000000e+00  1.0248884989660578e+00 0.0000000000000000e+00 0.0000000000000000e+00  1.0197751399435100e+00 0.0000000000000000e+00 0.0000000000000000e+00  1.0151854342084619e+00 0.0000000000000000e+00 0.0000000000000000e+00  1.0114478142297147e+00 0.0000000000000000e+00 0.0000000000000000e+00  1.0085172341338775e+00 0.0000000000000000e+00 0.0000000000000000e+00  1.0063303209717662e+00 0.0000000000000000e+00 0.0000000000000000e+00  1.0042403561669027e+00 0.0000000000000000e+00 0.0000000000000000e+00  1.0028588251764909e+00 0.0000000000000000e+00 0.0000000000000000e+00  1.0019741446906936e+00 0.0000000000000000e+00 0.0000000000000000e+00  1.0009504003060452e+00 0.0000000000000000e+00 0.0000000000000000e+00  1.0009428601412595e+00 0.0000000000000000e+00 0.0000000000000000e+00  1.0000287115127613e+00 0.0000000000000000e+00 0.0000000000000000e+00  1.0001248800961930e+00 0.0000000000000000e+00 0.0000000000000000e+00  9.9978924872908437e-01 0.0000000000000000e+00 0.0000000000000000e+00  1.0005089390013933e+00 0.0000000000000000e+00 0.0000000000000000e+00  1.0002669868020762e+00 0.0000000000000000e+00 0.0000000000000000e+00  9.9980199015089388e-01 0.0000000000000000e+00 0.0000000000000000e+00  1.0000001298994219e+00 0.0000000000000000e+00 0.0000000000000000e+00  1.0000001298994219e+00 0.0000000000000000e+00 0.0000000000000000e+00  1.0000001298994219e+00 0.0000000000000000e+00 0.0000000000000000e+00  1.0000001298994219e+00 0.0000000000000000e+00 0.0000000000000000e+00  1.0000001298994219e+00 0.0000000000000000e+00 0.0000000000000000e+00  1.0000001298994219e+00 0.0000000000000000e+00 0.0000000000000000e+00  1.0000001298994219e+00 0.0000000000000000e+00 0.0000000000000000e+00  1.0000001298994219e+00 0.0000000000000000e+00 0.0000000000000000e+00  1.0000001298994219e+00 0.0000000000000000e+00 0.0000000000000000e+00  1.0000001298994219e+00 0.0000000000000000e+00 0.0000000000000000e+00  1.0000001298994219e+00 0.0000000000000000e+00 0.0000000000000000e+00  1.0000001298994219e+00 0.0000000000000000e+00 0.0000000000000000e+00  1.0000001298994219e+00 0.0000000000000000e+00 0.0000000000000000e+00  1.0000001298994219e+00 0.0000000000000000e+00 0.0000000000000000e+00  1.0000001298994219e+00 0.0000000000000000e+00 0.0000000000000000e+00  1.0000001298994219e+00 0.0000000000000000e+00 0.0000000000000000e+00  1.0000001298994219e+00 0.0000000000000000e+00 0.0000000000000000e+00  1.0000001298994219e+00 0.0000000000000000e+00 0.0000000000000000e+00  1.0000001298994219e+00 0.0000000000000000e+00 0.0000000000000000e+00  1.0000001298994219e+00 0.0000000000000000e+00 0.0000000000000000e+00  1.0419755273457374e+00 -9.5162707137419460e-03 0.0000000000000000e+00  1.0391000344598409e+00 -1.9257929891845722e-02 0.0000000000000000e+00  1.0370396895593739e+00 -2.9842010013741913e-02 0.0000000000000000e+00  1.0314785869672336e+00 -4.1075847764975353e-02 0.0000000000000000e+00  1.0258593121412456e+00 -5.6494260594284855e-02 0.0000000000000000e+00  1.0304669828871442e+00 -5.9895064560874130e-02 0.0000000000000000e+00  1.0347145608060222e+00 -6.3341920203293975e-02 0.0000000000000000e+00  1.0399926080371917e+00 -6.6460637948546397e-02 0.0000000000000000e+00  1.0455555403006296e+00 -6.9389720645884292e-02 0.0000000000000000e+00  1.0517580792894192e+00 -7.1865031970389653e-02 0.0000000000000000e+00  1.0585474968216628e+00 -7.3928558339000125e-02 0.0000000000000000e+00  1.0657961779326679e+00 -7.5272953298508652e-02 0.0000000000000000e+00  1.0735499096509131e+00 -7.6004429375628110e-02 0.0000000000000000e+00  1.0814314530016234e+00 -7.5775851225373170e-02 0.0000000000000000e+00  1.0896214685738550e+00 -7.4807872878126569e-02 0.0000000000000000e+00  1.0978321613256485e+00 -7.2964634583892629e-02 0.0000000000000000e+00  1.1060795010859905e+00 -6.9951511694435253e-02 0.0000000000000000e+00  1.1139017685900985e+00 -6.5890642420361606e-02 0.0000000000000000e+00  1.1213597727112172e+00 -6.0992306961736679e-02 0.0000000000000000e+00  1.1282799860403834e+00 -5.5154154082442799e-02 0.0000000000000000e+00  1.1343996294854921e+00 -4.8406091919613405e-02 0.0000000000000000e+00  1.1397193646900365e+00 -4.0928547238274923e-02 0.0000000000000000e+00  1.1440510846202991e+00 -3.2841757004148799e-02 0.0000000000000000e+00  1.1473798607470636e+00 -2.4057615094853865e-02 0.0000000000000000e+00  1.1495933276452228e+00 -1.5102008136437623e-02 0.0000000000000000e+00  1.1506513989914040e+00 -5.7163353169473671e-03 0.0000000000000000e+00  1.1503133986347143e+00 3.8541186870587173e-03 0.0000000000000000e+00  1.1488875387734154e+00 1.3275603250651769e-02 0.0000000000000000e+00  1.1460036187997786e+00 2.2417818261424159e-02 0.0000000000000000e+00  1.1418918216332477e+00 3.1173369664068633e-02 0.0000000000000000e+00  1.1364920026799978e+00 3.9317230496063428e-02 0.0000000000000000e+00  1.1298837467353378e+00 4.6506216171898027e-02 0.0000000000000000e+00  1.1222293232010341e+00 5.2796158837965464e-02 0.0000000000000000e+00  1.1136046318061179e+00 5.7986090961070554e-02 0.0000000000000000e+00  1.1043100815211460e+00 6.1743841606682059e-02 0.0000000000000000e+00  1.0944575678503268e+00 6.407155175