<?xml version="1.0"?>
<VTKFile type="UnstructuredGrid"  version="0.1"  >
<UnstructuredGrid>
<Piece  NumberOfPoints="10199" NumberOfCells="20110">
<Points>
<DataArray  type="Float64"  NumberOfComponents="3"  format="ascii">0 -5 0  8 -5 0  30 -5 0  40 -5 0  40 5 0  30 5 0  8 5 0  0 5 0  8 -2.5 0  15 -2.5 0  30 -2.5 0  30 2.5 0  15 2.5 0  8 2.5 0  10 0.5 0  10 -0.5 0  0 0 0  0.4210526315780956 -5 0  0.8421052631563433 -5 0  1.263157894734281 -5 0  1.684210526311999 -5 0  2.105263157889717 -5 0  2.526315789467435 -5 0  2.947368421045153 -5 0  3.368421052622872 -5 0  3.78947368420059 -5 0  4.210526315779479 -5 0  4.631578947359537 -5 0  5.052631578939595 -5 0  5.473684210519653 -5 0  5.89473684209971 -5 0  6.315789473679768 -5 0  6.736842105259826 -5 0  7.157894736839884 -5 0  7.578947368419942 -5 0  8.407407407405314 -5 0  8.814814814810628 -5 0  9.222222222215942 -5 0  9.629629629621256 -5 0  10.03703703702657 -5 0  10.44444444443188 -5 0  10.8518518518372 -5 0  11.25925925924251 -5 0  11.66666666664783 -5 0  12.07407407405314 -5 0  12.48148148145846 -5 0  12.88888888886377 -5 0  13.29629629626908 -5 0  13.7037037036744 -5 0  14.11111111107971 -5 0  14.51851851848502 -5 0  14.92592592589034 -5 0  15.33333333329565 -5 0  15.74074074070096 -5 0  16.14814814810754 -5 0  16.55555555551614 -5 0  16.96296296292474 -5 0  17.37037037033335 -5 0  17.77777777774195 -5 0  18.18518518515056 -5 0  18.59259259255916 -5 0  18.99999999996776 -5 0  19.40740740737636 -5 0  19.81481481478497 -5 0  20.22222222219357 -5 0  20.62962962960217 -5 0  21.03703703701077 -5 0  21.44444444441937 -5 0  21.85185185182797 -5 0  22.25925925923657 -5 0  22.66666666664518 -5 0  23.07407407405378 -5 0  23.48148148146238 -5 0  23.88888888887098 -5 0  24.29629629627958 -5 0  24.70370370368818 -5 0  25.11111111109678 -5 0  25.51851851850539 -5 0  25.92592592591399 -5 0  26.33333333332259 -5 0  26.74074074073119 -5 0  27.14814814813979 -5 0  27.55555555554839 -5 0  27.96296296295699 -5 0  28.3703703703656 -5 0  28.7777777777742 -5 0  29.1851851851828 -5 0  29.5925925925914 -5 0  30.41666666667852 -5 0  30.83333333335704 -5 0  31.25000000003556 -5 0  31.66666666671408 -5 0  32.08333333338936 -5 0  32.50000000005308 -5 0  32.9166666667168 -5 0  33.33333333338052 -5 0  33.75000000004424 -5 0  34.16666666670795 -5 0  34.58333333337167 -5 0  35.00000000003539 -5 0  35.41666666669911 -5 0  35.83333333336282 -5 0  36.25000000002654 -5 0  36.66666666669026 -5 0  37.08333333335398 -5 0  37.50000000001769 -5 0  37.91666666668141 -5 0  38.33333333334513 -5 0  38.75000000000885 -5 0  39.16666666667257 -5 0  39.58333333333628 -5 0  40 -4.583333333332821 0  40 -4.166666666665642 0  40 -3.74999999999855 0  40 -3.333333333333135 0  40 -2.916666666667806 0  40 -2.500000000002478 0  40 -2.083333333337148 0  40 -1.666666666671818 0  40 -1.250000000006488 0  40 -0.8333333333405228 0  40 -0.4166666666733416 0  40 -6.163070054299169e-12 0  40 0.4166666666610173 0  40 0.8333333333281976 0  40 1.249999999995378 0  40 1.666666666662558 0  40 2.083333333329739 0  40 2.499999999996919 0  40 2.916666666664099 0  40 3.33333333333128 0  40 3.74999999999846 0  40 4.166666666665641 0  40 4.583333333332821 0  39.58333333333628 5 0  39.16666666667256 5 0  38.75000000000885 5 0  38.33333333334513 5 0  37.91666666668141 5 0  37.50000000001769 5 0  37.08333333335398 5 0  36.66666666669025 5 0  36.25000000002654 5 0  35.83333333336282 5 0  35.41666666669911 5 0  35.00000000003539 5 0  34.58333333337167 5 0  34.16666666670795 5 0  33.75000000004424 5 0  33.33333333338052 5 0  32.9166666667168 5 0  32.50000000005308 5 0  32.08333333338936 5 0  31.66666666671408 5 0  31.25000000003556 5 0  30.83333333335704 5 0  30.41666666667852 5 0  29.59259259259259 5 0  29.18518518518519 5 0  28.77777777777778 5 0  28.37037037037037 5 0  27.96296296296296 5 0  27.55555555555556 5 0  27.14814814814815 5 0  26.74074074074074 5 0  26.33333333333333 5 0  25.92592592592593 5 0  25.51851851851852 5 0  25.11111111111111 5 0  24.7037037037037 5 0  24.2962962962963 5 0  23.88888888888889 5 0  23.48148148148148 5 0  23.07407407407408 5 0  22.66666666666667 5 0  22.25925925925926 5 0  21.85185185185185 5 0  21.44444444444445 5 0  21.03703703703704 5 0  20.62962962962963 5 0  20.22222222222222 5 0  19.81481481481482 5 0  19.40740740740741 5 0  19 5 0  18.5925925925926 5 0  18.18518518518519 5 0  17.77777777777778 5 0  17.37037037037037 5 0  16.96296296296296 5 0  16.55555555555556 5 0  16.14814814814815 5 0  15.74074074074074 5 0  15.33333333333333 5 0  14.92592592592593 5 0  14.51851851851852 5 0  14.11111111111111 5 0  13.70370370370371 5 0  13.2962962962963 5 0  12.88888888888889 5 0  12.48148148148148 5 0  12.07407407407408 5 0  11.66666666666667 5 0  11.25925925925926 5 0  10.85185185185185 5 0  10.44444444444445 5 0  10.03703703703704 5 0  9.629629629629633 5 0  9.222222222222221 5 0  8.814814814814817 5 0  8.407407407407408 5 0  7.5789473684193 5 0  7.157894736838599 5 0  6.73684210526082 5 0  6.315789473684795 5 0  5.894736842108769 5 0  5.473684210532742 5 0  5.052631578956715 5 0  4.631578947380689 5 0  4.210526315804662 5 0  3.789473684226299 5 0  3.368421052645599 5 0  2.947368421064898 5 0  2.526315789484198 5 0  2.105263157903499 5 0  1.6842105263228 5 0  1.2631578947421 5 0  0.8421052631613994 5 0  0.4210526315806993 5 0  0 4.545454545454545 0  0 4.09090909090909 0  0 3.636363636363634 0  0 3.18181818181818 0  0 2.727272727272726 0  0 2.272727272727271 0  0 1.818181818181817 0  0 1.363636363636363 0  0 0.9090909090909092 0  0 0.454545454545455 0  0 -0.4545454545450807 0  0 -0.9090909090895867 0  0 -1.363636363633713 0  0 -1.818181818177841 0  0 -2.272727272723127 0  0 -2.727272727269273 0  0 -3.181818181815419 0  0 -3.636363636361564 0  0 -4.090909090907709 0  0 -4.545454545453855 0  8 -4.499999999999999 0  8 -3.999999999999999 0  8 -3.499999999999999 0  8 -3 0  8.137254901963859 -2.5 0  8.274509803926303 -2.5 0  8.411764705886863 -2.5 0  8.549019607849138 -2.5 0  8.686274509809513 -2.5 0  8.82352941176989 -2.5 0  8.960784313730265 -2.5 0  9.098039215690642 -2.5 0  9.235294117651017 -2.5 0  9.372549019611395 -2.5 0  9.50980392157177 -2.5 0  9.647058823532147 -2.5 0  9.784313725492522 -2.5 0  9.921568627452897 -2.5 0  10.05882352941327 -2.5 0  10.19607843137365 -2.5 0  10.33333333333402 -2.5 0  10.4705882352944 -2.5 0  10.60784313725478 -2.5 0  10.74509803921515 -2.5 0  10.88235294117553 -2.5 0  11.0196078431359 -2.5 0  11.15686274509628 -2.5 0  11.29411764705665 -2.5 0  11.43137254901703 -2.5 0  11.56862745097915 -2.5 0  11.70588235294301 -2.5 0  11.84313725490686 -2.5 0  11.98039215687072 -2.5 0  12.11764705883209 -2.5 0  12.25490196079247 -2.5 0  12.39215686275285 -2.5 0  12.52941176471322 -2.5 0  12.6666666666736 -2.5 0  12.80392156863397 -2.5 0  12.94117647059435 -2.5 0  13.07843137255473 -2.5 0  13.2156862745151 -2.5 0  13.35294117647548 -2.5 0  13.49019607843586 -2.5 0  13.62745098039623 -2.5 0  13.76470588235661 -2.5 0  13.90196078431699 -2.5 0  14.03921568627736 -2.5 0  14.17647058823774 -2.5 0  14.31372549019812 -2.5 0  14.45098039215849 -2.5 0  14.58823529411887 -2.5 0  14.72549019607925 -2.5 0  14.86274509803962 -2.5 0  15.20270270270254 -2.5 0  15.40540540540509 -2.5 0  15.60810810810763 -2.5 0  15.81081081081017 -2.5 0  16.01351351351227 -2.5 0  16.21621621621265 -2.5 0  16.41891891891279 -2.5 0  16.62162162161294 -2.5 0  16.82432432431308 -2.5 0  17.02702702701322 -2.5 0  17.22972972971337 -2.5 0  17.43243243241351 -2.5 0  17.63513513511365 -2.5 0  17.83783783781379 -2.5 0  18.04054054051394 -2.5 0  18.24324324321408 -2.5 0  18.44594594591422 -2.5 0  18.64864864861436 -2.5 0  18.85135135131451 -2.5 0  19.05405405401465 -2.5 0  19.25675675671479 -2.5 0  19.45945945941494 -2.5 0  19.66216216211508 -2.5 0  19.86486486481522 -2.5 0  20.06756756751536 -2.5 0  20.27027027021551 -2.5 0  20.47297297291565 -2.5 0  20.6756756756158 -2.5 0  20.87837837831594 -2.5 0  21.08108108101608 -2.5 0  21.28378378371622 -2.5 0  21.48648648641637 -2.5 0  21.68918918911651 -2.5 0  21.89189189181666 -2.5 0  22.0945945945168 -2.5 0  22.29729729721694 -2.5 0  22.49999999991778 -2.5 0  22.70270270262203 -2.5 0  22.90540540532697 -2.5 0  23.10810810803191 -2.5 0  23.31081081073686 -2.5 0  23.5135135134418 -2.5 0  23.71621621614674 -2.5 0  23.91891891885169 -2.5 0  24.12162162155663 -2.5 0  24.32432432426158 -2.5 0  24.52702702696652 -2.5 0  24.72972972967146 -2.5 0  24.93243243237641 -2.5 0  25.13513513508135 -2.5 0  25.3378378377863 -2.5 0  25.54054054049124 -2.5 0  25.74324324319618 -2.5 0  25.94594594590112 -2.5 0  26.14864864860607 -2.5 0  26.35135135131101 -2.5 0  26.55405405401596 -2.5 0  26.7567567567209 -2.5 0  26.95945945942584 -2.5 0  27.16216216213079 -2.5 0  27.36486486483573 -2.5 0  27.56756756754068 -2.5 0  27.77027027024562 -2.5 0  27.97297297295056 -2.5 0  28.1756756756555 -2.5 0  28.37837837836045 -2.5 0  28.5810810810654 -2.5 0  28.78378378377034 -2.5 0  28.98648648647528 -2.5 0  29.18918918918023 -2.5 0  29.39189189188517 -2.5 0  29.59459459459011 -2.5 0  29.79729729729506 -2.5 0  30 -3.000000000000001 0  30 -3.500000000000001 0  30 -4.000000000000001 0  30 -4.5 0  8 4.499999999999999 0  8 3.999999999999999 0  8 3.499999999999999 0  8 3 0  8.137254901963859 2.5 0  8.274509803926303 2.5 0  8.411764705886863 2.5 0  8.549019607849138 2.5 0  8.686274509809513 2.5 0  8.82352941176989 2.5 0  8.960784313730265 2.5 0  9.098039215690642 2.5 0  9.235294117651017 2.5 0  9.372549019611395 2.5 0  9.50980392157177 2.5 0  9.647058823532147 2.5 0  9.784313725492522 2.5 0  9.921568627452897 2.5 0  10.05882352941327 2.5 0  10.19607843137365 2.5 0  10.33333333333402 2.5 0  10.4705882352944 2.5 0  10.60784313725478 2.5 0  10.74509803921515 2.5 0  10.88235294117553 2.5 0  11.0196078431359 2.5 0  11.15686274509628 2.5 0  11.29411764705665 2.5 0  11.43137254901703 2.5 0  11.56862745097915 2.5 0  11.70588235294301 2.5 0  11.84313725490686 2.5 0  11.98039215687072 2.5 0  12.11764705883209 2.5 0  12.25490196079247 2.5 0  1
[...]
<PointData  Vectors="f_17"> 
<DataArray  type="Float64"  Name="f_17"  NumberOfComponents="3" format="ascii">1.0000001314924869e+00 0.0000000000000000e+00 0.0000000000000000e+00  1.0428000344181674e+00 0.0000000000000000e+00 0.0000000000000000e+00  1.0626890722969655e+00 0.0000000000000000e+00 0.0000000000000000e+00  1.1035724501705990e+00 0.0000000000000000e+00 0.0000000000000000e+00  1.1020022931497986e+00 0.0000000000000000e+00 0.0000000000000000e+00  1.0663883568254129e+00 0.0000000000000000e+00 0.0000000000000000e+00  1.0383261452862338e+00 0.0000000000000000e+00 0.0000000000000000e+00  1.0000001314924869e+00 0.0000000000000000e+00 0.0000000000000000e+00  1.0250428037623984e+00 -5.2416466773589236e-02 0.0000000000000000e+00  1.1333307857808037e+00 -1.9655276850599014e-02 0.0000000000000000e+00  1.0805495860804344e+00 -9.0574759818162348e-02 0.0000000000000000e+00  1.0640827301652758e+00 -7.5969576362407587e-02 0.0000000000000000e+00  1.0015328588848180e+00 -6.1716000638867508e-02 0.0000000000000000e+00  1.0177658008488841e+00 4.9473319681655643e-02 0.0000000000000000e+00  0.0000000000000000e+00 0.0000000000000000e+00 0.0000000000000000e+00  0.0000000000000000e+00 0.0000000000000000e+00 0.0000000000000000e+00  1.0000001314924869e+00 0.0000000000000000e+00 0.0000000000000000e+00  9.9929471629194588e-01 0.0000000000000000e+00 0.0000000000000000e+00  9.9875867822015507e-01 0.0000000000000000e+00 0.0000000000000000e+00  1.0008583627906282e+00 0.0000000000000000e+00 0.0000000000000000e+00  1.0007444376379977e+00 0.0000000000000000e+00 0.0000000000000000e+00  1.0018261588963240e+00 0.0000000000000000e+00 0.0000000000000000e+00  1.0022771078394856e+00 0.0000000000000000e+00 0.0000000000000000e+00  1.0027266935100627e+00 0.0000000000000000e+00 0.0000000000000000e+00  1.0037045565274949e+00 0.0000000000000000e+00 0.0000000000000000e+00  1.0050694601289907e+00 0.0000000000000000e+00 0.0000000000000000e+00  1.0063066895032862e+00 0.0000000000000000e+00 0.0000000000000000e+00  1.0078684365222974e+00 0.0000000000000000e+00 0.0000000000000000e+00  1.0101552195701797e+00 0.0000000000000000e+00 0.0000000000000000e+00  1.0125387271612099e+00 0.0000000000000000e+00 0.0000000000000000e+00  1.0164813711431082e+00 0.0000000000000000e+00 0.0000000000000000e+00  1.0182111320145710e+00 0.0000000000000000e+00 0.0000000000000000e+00  1.0227669087071318e+00 0.0000000000000000e+00 0.0000000000000000e+00  1.0295104507857329e+00 0.0000000000000000e+00 0.0000000000000000e+00  1.0349144050278036e+00 0.0000000000000000e+00 0.0000000000000000e+00  1.0506447409672659e+00 0.0000000000000000e+00 0.0000000000000000e+00  1.0587790826865695e+00 0.0000000000000000e+00 0.0000000000000000e+00  1.0661134465079489e+00 0.0000000000000000e+00 0.0000000000000000e+00  1.0735712440658336e+00 0.0000000000000000e+00 0.0000000000000000e+00  1.0791246352864170e+00 0.0000000000000000e+00 0.0000000000000000e+00  1.0834721299039496e+00 0.0000000000000000e+00 0.0000000000000000e+00  1.0869207507712708e+00 0.0000000000000000e+00 0.0000000000000000e+00  1.0874521451267913e+00 0.0000000000000000e+00 0.0000000000000000e+00  1.0870073870965824e+00 0.0000000000000000e+00 0.0000000000000000e+00  1.0852508022772993e+00 0.0000000000000000e+00 0.0000000000000000e+00  1.0833625293366902e+00 0.0000000000000000e+00 0.0000000000000000e+00  1.0805557284503506e+00 0.0000000000000000e+00 0.0000000000000000e+00  1.0792826282185479e+00 0.0000000000000000e+00 0.0000000000000000e+00  1.0785138862626475e+00 0.0000000000000000e+00 0.0000000000000000e+00  1.0779783064138264e+00 0.0000000000000000e+00 0.0000000000000000e+00  1.0777681947298605e+00 0.0000000000000000e+00 0.0000000000000000e+00  1.0767700600410002e+00 0.0000000000000000e+00 0.0000000000000000e+00  1.0745592240281681e+00 0.0000000000000000e+00 0.0000000000000000e+00  1.0703934185313542e+00 0.0000000000000000e+00 0.0000000000000000e+00  1.0643914488512087e+00 0.0000000000000000e+00 0.0000000000000000e+00  1.0583858308103489e+00 0.0000000000000000e+00 0.0000000000000000e+00  1.0525311737625398e+00 0.0000000000000000e+00 0.0000000000000000e+00  1.0460622126764481e+00 0.0000000000000000e+00 0.0000000000000000e+00  1.0420962356616572e+00 0.0000000000000000e+00 0.0000000000000000e+00  1.0401817252302339e+00 0.0000000000000000e+00 0.0000000000000000e+00  1.0407760591578528e+00 0.0000000000000000e+00 0.0000000000000000e+00  1.0442137246827350e+00 0.0000000000000000e+00 0.0000000000000000e+00  1.0490023114535090e+00 0.0000000000000000e+00 0.0000000000000000e+00  1.0545280522241278e+00 0.0000000000000000e+00 0.0000000000000000e+00  1.0600574695382989e+00 0.0000000000000000e+00 0.0000000000000000e+00  1.0630896224687394e+00 0.0000000000000000e+00 0.0000000000000000e+00  1.0637396882098464e+00 0.0000000000000000e+00 0.0000000000000000e+00  1.0633277959296707e+00 0.0000000000000000e+00 0.0000000000000000e+00  1.0598349915845913e+00 0.0000000000000000e+00 0.0000000000000000e+00  1.0550066099906907e+00 0.0000000000000000e+00 0.0000000000000000e+00  1.0510627589504242e+00 0.0000000000000000e+00 0.0000000000000000e+00  1.0472777329005163e+00 0.0000000000000000e+00 0.0000000000000000e+00  1.0451272092523889e+00 0.0000000000000000e+00 0.0000000000000000e+00  1.0467429750697133e+00 0.0000000000000000e+00 0.0000000000000000e+00  1.0494689225216642e+00 0.0000000000000000e+00 0.0000000000000000e+00  1.0537244246360042e+00 0.0000000000000000e+00 0.0000000000000000e+00  1.0595419367330494e+00 0.0000000000000000e+00 0.0000000000000000e+00  1.0642790401430335e+00 0.0000000000000000e+00 0.0000000000000000e+00  1.0675963357404277e+00 0.0000000000000000e+00 0.0000000000000000e+00  1.0695249812174650e+00 0.0000000000000000e+00 0.0000000000000000e+00  1.0683591551382441e+00 0.0000000000000000e+00 0.0000000000000000e+00  1.0650549767151356e+00 0.0000000000000000e+00 0.0000000000000000e+00  1.0632146587633013e+00 0.0000000000000000e+00 0.0000000000000000e+00  1.0594552340158712e+00 0.0000000000000000e+00 0.0000000000000000e+00  1.0549734525580472e+00 0.0000000000000000e+00 0.0000000000000000e+00  1.0534055168998313e+00 0.0000000000000000e+00 0.0000000000000000e+00  1.0553419572942051e+00 0.0000000000000000e+00 0.0000000000000000e+00  1.0582693213927725e+00 0.0000000000000000e+00 0.0000000000000000e+00  1.0673378538454619e+00 0.0000000000000000e+00 0.0000000000000000e+00  1.0705171197896093e+00 0.0000000000000000e+00 0.0000000000000000e+00  1.0723007369323172e+00 0.0000000000000000e+00 0.0000000000000000e+00  1.0732610283698871e+00 0.0000000000000000e+00 0.0000000000000000e+00  1.0721558812955374e+00 0.0000000000000000e+00 0.0000000000000000e+00  1.0694725945439958e+00 0.0000000000000000e+00 0.0000000000000000e+00  1.0661498588500158e+00 0.0000000000000000e+00 0.0000000000000000e+00  1.0638466170240397e+00 0.0000000000000000e+00 0.0000000000000000e+00  1.0628172035187824e+00 0.0000000000000000e+00 0.0000000000000000e+00  1.0633198146823684e+00 0.0000000000000000e+00 0.0000000000000000e+00  1.0661621986206824e+00 0.0000000000000000e+00 0.0000000000000000e+00  1.0703102259155879e+00 0.0000000000000000e+00 0.0000000000000000e+00  1.0746704616793881e+00 0.0000000000000000e+00 0.0000000000000000e+00  1.0792245305139763e+00 0.0000000000000000e+00 0.0000000000000000e+00  1.0825199107233292e+00 0.0000000000000000e+00 0.0000000000000000e+00  1.0848679402944250e+00 0.0000000000000000e+00 0.0000000000000000e+00  1.0847334697779236e+00 0.0000000000000000e+00 0.0000000000000000e+00  1.0842742014602895e+00 0.0000000000000000e+00 0.0000000000000000e+00  1.0833607837156540e+00 0.0000000000000000e+00 0.0000000000000000e+00  1.0838493171177408e+00 0.0000000000000000e+00 0.0000000000000000e+00  1.0852312568846390e+00 0.0000000000000000e+00 0.0000000000000000e+00  1.0894983848136375e+00 0.0000000000000000e+00 0.0000000000000000e+00  1.0951536091929837e+00 0.0000000000000000e+00 0.0000000000000000e+00  1.1036689613569517e+00 -9.1294039111700521e-03 0.0000000000000000e+00  1.1028464936961491e+00 -1.9676585596339502e-02 0.0000000000000000e+00  1.1004217638727358e+00 -3.3009740513734800e-02 0.0000000000000000e+00  1.0926823363532339e+00 -5.0739690059409336e-02 0.0000000000000000e+00  1.0793499977263876e+00 -7.7896384606135557e-02 0.0000000000000000e+00  1.0577531942922922e+00 -1.1560881833849986e-01 0.0000000000000000e+00  1.0179667332144162e+00 -1.7034587280923161e-01 0.0000000000000000e+00  9.4875353261313455e-01 -2.1961724246372616e-01 0.0000000000000000e+00  8.5356053838407964e-01 -2.5367075461010857e-01 0.0000000000000000e+00  7.5956033825317248e-01 -2.6574740194307300e-01 0.0000000000000000e+00  6.9807383771674025e-01 -2.6327126371085069e-01 0.0000000000000000e+00  6.8812638557265393e-01 -2.5621781920544584e-01 0.0000000000000000e+00  7.3159940444800697e-01 -2.5168054048196248e-01 0.0000000000000000e+00  8.2539896563257809e-01 -2.4328085611923281e-01 0.0000000000000000e+00  9.4727375909500056e-01 -2.1695264952052809e-01 0.0000000000000000e+00  1.0564710929626153e+00 -1.6735539872678623e-01 0.0000000000000000e+00  1.1198435000400879e+00 -1.1566750695721403e-01 0.0000000000000000e+00  1.1390319205544870e+00 -6.7259062594085040e-02 0.0000000000000000e+00  1.1299401914041265e+00 -3.7236982593688697e-02 0.0000000000000000e+00  1.1167726171869055e+00 -1.7641929006382680e-02 0.0000000000000000e+00  1.1085884412355511e+00 -7.6511600104247623e-03 0.0000000000000000e+00  1.1054150535664569e+00 -2.9796681717505682e-03 0.0000000000000000e+00  1.1031775793515932e+00 -1.0025732068753006e-03 0.0000000000000000e+00  1.1021555028990484e+00 0.0000000000000000e+00 0.0000000000000000e+00  1.1010588249730273e+00 0.0000000000000000e+00 0.0000000000000000e+00  1.0981394191027889e+00 0.0000000000000000e+00 0.0000000000000000e+00  1.0937429275773163e+00 0.0000000000000000e+00 0.0000000000000000e+00  1.0875657863186083e+00 0.0000000000000000e+00 0.0000000000000000e+00  1.0817639717841303e+00 0.0000000000000000e+00 0.0000000000000000e+00  1.0768999063216587e+00 0.0000000000000000e+00 0.0000000000000000e+00  1.0738683524812900e+00 0.0000000000000000e+00 0.0000000000000000e+00  1.0722267485335490e+00 0.0000000000000000e+00 0.0000000000000000e+00  1.0727356142296869e+00 0.0000000000000000e+00 0.0000000000000000e+00  1.0744935181851660e+00 0.0000000000000000e+00 0.0000000000000000e+00  1.0765255432112577e+00 0.0000000000000000e+00 0.0000000000000000e+00  1.0781717805857023e+00 0.0000000000000000e+00 0.0000000000000000e+00  1.0792849514817384e+00 0.0000000000000000e+00 0.0000000000000000e+00  1.0779067663431106e+00 0.0000000000000000e+00 0.0000000000000000e+00  1.0758845743635064e+00 0.0000000000000000e+00 0.0000000000000000e+00  1.0712186031623461e+00 0.0000000000000000e+00 0.0000000000000000e+00  1.0666022487883782e+00 0.0000000000000000e+00 0.0000000000000000e+00  1.0622913492453161e+00 0.0000000000000000e+00 0.0000000000000000e+00  1.0598264253919147e+00 0.0000000000000000e+00 0.0000000000000000e+00  1.0590216667197792e+00 0.0000000000000000e+00 0.0000000000000000e+00  1.0599012604053404e+00 0.0000000000000000e+00 0.0000000000000000e+00  1.0628244544923442e+00 0.0000000000000000e+00 0.0000000000000000e+00  1.0687841467438093e+00 0.0000000000000000e+00 0.0000000000000000e+00  1.0707997954231891e+00 0.0000000000000000e+00 0.0000000000000000e+00  1.0698287788232652e+00 0.0000000000000000e+00 0.0000000000000000e+00  1.0683476897561381e+00 0.0000000000000000e+00 0.0000000000000000e+00  1.0659996189632273e+00 0.0000000000000000e+00 0.0000000000000000e+00  1.0615953005251102e+00 0.0000000000000000e+00 0.0000000000000000e+00  1.0552672705291921e+00 0.0000000000000000e+00 0.0000000000000000e+00  1.0523172416516489e+00 0.0000000000000000e+00 0.0000000000000000e+00  1.0509378688312345e+00 0.0000000000000000e+00 0.0000000000000000e+00  1.0507576194498742e+00 0.0000000000000000e+00 0.0000000000000000e+00  1.0531349053849361e+00 0.0000000000000000e+00 0.0000000000000000e+00  1.0569120528669971e+00 0.0000000000000000e+00 0.0000000000000000e+00  1.0604463847984364e+00 0.0000000000000000e+00 0.0000000000000000e+00  1.0641102086020064e+00 0.0000000000000000e+00 0.0000000000000000e+00  1.0659791896732433e+00 0.0000000000000000e+00 0.0000000000000000e+00  1.0647765864134284e+00 0.0000000000000000e+00 0.0000000000000000e+00  1.0623766811427888e+00 0.0000000000000000e+00 0.0000000000000000e+00  1.0579921490644169e+00 0.0000000000000000e+00 0.0000000000000000e+00  1.0516894650267461e+00 0.0000000000000000e+00 0.0000000000000000e+00  1.0466226821908631e+00 0.0000000000000000e+00 0.0000000000000000e+00  1.0426491504436062e+00 0.0000000000000000e+00 0.0000000000000000e+00  1.0396590740206773e+00 0.0000000000000000e+00 0.0000000000000000e+00  1.0406859888173854e+00 0.0000000000000000e+00 0.0000000000000000e+00  1.0438716997536699e+00 0.0000000000000000e+00 0.0000000000000000e+00  1.0481008357432995e+00 0.0000000000000000e+00 0.0000000000000000e+00  1.0535351280901546e+00 0.0000000000000000e+00 0.0000000000000000e+00  1.0588283116533401e+00 0.0000000000000000e+00 0.0000000000000000e+00  1.0624321476837351e+00 0.0000000000000000e+00 0.0000000000000000e+00  1.0644765300389867e+00 0.0000000000000000e+00 0.0000000000000000e+00  1.0642262550924162e+00 0.0000000000000000e+00 0.0000000000000000e+00  1.0618093749272424e+00 0.0000000000000000e+00 0.0000000000000000e+00  1.0589436509329748e+00 0.0000000000000000e+00 0.0000000000000000e+00  1.0548987769205642e+00 0.0000000000000000e+00 0.0000000000000000e+00  1.0522091166366283e+00 0.0000000000000000e+00 0.0000000000000000e+00  1.0522058086460029e+00 0.0000000000000000e+00 0.0000000000000000e+00  1.0543632435737211e+00 0.0000000000000000e+00 0.0000000000000000e+00  1.0582870843991339e+00 0.0000000000000000e+00 0.0000000000000000e+00  1.0637421594170786e+00 0.0000000000000000e+00 0.0000000000000000e+00  1.0707539277850258e+00 0.0000000000000000e+00 0.0000000000000000e+00  1.0789273920165092e+00 0.0000000000000000e+00 0.0000000000000000e+00  1.0859460937222050e+00 0.0000000000000000e+00 0.0000000000000000e+00  1.0915243353416548e+00 0.0000000000000000e+00 0.0000000000000000e+00  1.0968764168545893e+00 0.0000000000000000e+00 0.0000000000000000e+00  1.0985029543392175e+00 0.0000000000000000e+00 0.0000000000000000e+00  1.0989146736704707e+00 0.0000000000000000e+00 0.0000000000000000e+00  1.0968543855528994e+00 0.0000000000000000e+00 0.0000000000000000e+00  1.0923202171897226e+00 0.0000000000000000e+00 0.0000000000000000e+00  1.0863035089710613e+00 0.0000000000000000e+00 0.0000000000000000e+00  1.0793458826569313e+00 0.0000000000000000e+00 0.0000000000000000e+00  1.0715938645254126e+00 0.0000000000000000e+00 0.0000000000000000e+00  1.0626539483037429e+00 0.0000000000000000e+00 0.0000000000000000e+00  1.0546676684418170e+00 0.0000000000000000e+00 0.0000000000000000e+00  1.0462396004097443e+00 0.0000000000000000e+00 0.0000000000000000e+00  1.0307725507176357e+00 0.0000000000000000e+00 0.0000000000000000e+00  1.0242722305487681e+00 0.0000000000000000e+00 0.0000000000000000e+00  1.0191620726384545e+00 0.0000000000000000e+00 0.0000000000000000e+00  1.0146019580391628e+00 0.0000000000000000e+00 0.0000000000000000e+00  1.0108869224686154e+00 0.0000000000000000e+00 0.0000000000000000e+00  1.0079773486157695e+00 0.0000000000000000e+00 0.0000000000000000e+00  1.0058058194685646e+00 0.0000000000000000e+00 0.0000000000000000e+00  1.0037173256541896e+00 0.0000000000000000e+00 0.0000000000000000e+00  1.0023547545034566e+00 0.0000000000000000e+00 0.0000000000000000e+00  1.0014780033630717e+00 0.0000000000000000e+00 0.0000000000000000e+00  1.0004856328066354e+00 0.0000000000000000e+00 0.0000000000000000e+00  1.0005301292780477e+00 0.0000000000000000e+00 0.0000000000000000e+00  9.9968541478116679e-01 0.0000000000000000e+00 0.0000000000000000e+00  9.9985383127731964e-01 0.0000000000000000e+00 0.0000000000000000e+00  9.9960588685921647e-01 0.0000000000000000e+00 0.0000000000000000e+00  1.0004019610727470e+00 0.0000000000000000e+00 0.0000000000000000e+00  1.0002210346983342e+00 0.0000000000000000e+00 0.0000000000000000e+00  9.9979477116810878e-01 0.0000000000000000e+00 0.0000000000000000e+00  1.0000001314924869e+00 0.0000000000000000e+00 0.0000000000000000e+00  1.0000001314924869e+00 0.0000000000000000e+00 0.0000000000000000e+00  1.0000001314924869e+00 0.0000000000000000e+00 0.0000000000000000e+00  1.0000001314924869e+00 0.0000000000000000e+00 0.0000000000000000e+00  1.0000001314924869e+00 0.0000000000000000e+00 0.0000000000000000e+00  1.0000001314924869e+00 0.0000000000000000e+00 0.0000000000000000e+00  1.0000001314924869e+00 0.0000000000000000e+00 0.0000000000000000e+00  1.0000001314924869e+00 0.0000000000000000e+00 0.0000000000000000e+00  1.0000001314924869e+00 0.0000000000000000e+00 0.0000000000000000e+00  1.0000001314924869e+00 0.0000000000000000e+00 0.0000000000000000e+00  1.0000001314924869e+00 0.0000000000000000e+00 0.0000000000000000e+00  1.0000001314924869e+00 0.0000000000000000e+00 0.0000000000000000e+00  1.0000001314924869e+00 0.0000000000000000e+00 0.0000000000000000e+00  1.0000001314924869e+00 0.0000000000000000e+00 0.0000000000000000e+00  1.0000001314924869e+00 0.0000000000000000e+00 0.0000000000000000e+00  1.0000001314924869e+00 0.0000000000000000e+00 0.0000000000000000e+00  1.0000001314924869e+00 0.0000000000000000e+00 0.0000000000000000e+00  1.0000001314924869e+00 0.0000000000000000e+00 0.0000000000000000e+00  1.0000001314924869e+00 0.0000000000000000e+00 0.0000000000000000e+00  1.0000001314924869e+00 0.0000000000000000e+00 0.0000000000000000e+00  1.0422987333787528e+00 -9.2691849216862097e-03 0.0000000000000000e+00  1.0396347190080815e+00 -1.8806586656375121e-02 0.0000000000000000e+00  1.0379222714769880e+00 -2.9330336492578837e-02 0.0000000000000000e+00  1.0328783692643169e+00 -4.0555964689486912e-02 0.0000000000000000e+00  1.0279951297598813e+00 -5.5970824192293593e-02 0.0000000000000000e+00  1.0327381965259450e+00 -5.9116704814647772e-02 0.0000000000000000e+00  1.0370768718959225e+00 -6.2279538540591102e-02 0.0000000000000000e+00  1.0424545612575900e+00 -6.5060888405076442e-02 0.0000000000000000e+00  1.0480822067550470e+00 -6.7615201910715669e-02 0.0000000000000000e+00  1.0543296584842605e+00 -6.9658002650521342e-02 0.0000000000000000e+00  1.0611325024876113e+00 -7.1249535660132285e-02 0.0000000000000000e+00  1.0683391699732947e+00 -7.2069024954656016e-02 0.0000000000000000e+00  1.0760109318123667e+00 -7.2222713783747713e-02 0.0000000000000000e+00  1.0837220327057075e+00 -7.1363579438599098e-02 0.0000000000000000e+00  1.0916702838104273e+00 -6.9733903039211328e-02 0.0000000000000000e+00  1.0995236498441454e+00 -6.7210552313776595e-02 0.0000000000000000e+00  1.1073199842873260e+00 -6.3476995483559326e-02 0.0000000000000000e+00  1.1145510572138446e+00 -5.8675856615576533e-02 0.0000000000000000e+00  1.1212641383215083e+00 -5.3071604632909684e-02 0.0000000000000000e+00  1.1272801807297750e+00 -4.6562619037043465e-02 0.0000000000000000e+00  1.1323240697063717e+00 -3.9220873979970407e-02 0.0000000000000000e+00  1.1363714630026891e+00 -3.1250500659442342e-02 0.0000000000000000e+00  1.1392723785528971e+00 -2.2839976875769323e-02 0.0000000000000000e+00  1.1409857251089592e+00 -1.3903833455173122e-02 0.0000000000000000e+00  1.1414344347889507e+00 -5.0914146790330033e-03 0.0000000000000000e+00  1.1406018551546222e+00 3.9157157997153020e-03 0.0000000000000000e+00  1.1382985893889794e+00 1.2747739504696997e-02 0.0000000000000000e+00  1.1349043832148833e+00 2.1012723207420727e-02 0.0000000000000000e+00  1.1301190407636523e+00 2.8578459026982639e-02 0.0000000000000000e+00  1.1242433830221610e+00 3.5318791818135208e-02 0.0000000000000000e+00  1.1173282166642624e+00 4.1045887341555648e-02 0.0000000000000000e+00  1.1095573703975112e+00 4.5400256568926219e-02 0.0000000000000000e+00  1.1011268634965368e+00 4.8489003445971166e-02 0.0000000000000000e+00  1.0922660261311514e+00 5.0191994790894860e-02 0.0000000000000000e+00  1.0833230392387629e+00 5.0234501238473901e-02 0.0000000000000000e+00  1.0744479991927252e+00 4.8754