<?xml version="1.0"?>
<VTKFile type="UnstructuredGrid"  version="0.1"  >
<UnstructuredGrid>
<Piece  NumberOfPoints="10199" NumberOfCells="20110">
<Points>
<DataArray  type="Float64"  NumberOfComponents="3"  format="ascii">0 -5 0  8 -5 0  30 -5 0  40 -5 0  40 5 0  30 5 0  8 5 0  0 5 0  8 -2.5 0  15 -2.5 0  30 -2.5 0  30 2.5 0  15 2.5 0  8 2.5 0  10 0.5 0  10 -0.5 0  0 0 0  0.4210526315780956 -5 0  0.8421052631563433 -5 0  1.263157894734281 -5 0  1.684210526311999 -5 0  2.105263157889717 -5 0  2.526315789467435 -5 0  2.947368421045153 -5 0  3.368421052622872 -5 0  3.78947368420059 -5 0  4.210526315779479 -5 0  4.631578947359537 -5 0  5.052631578939595 -5 0  5.473684210519653 -5 0  5.89473684209971 -5 0  6.315789473679768 -5 0  6.736842105259826 -5 0  7.157894736839884 -5 0  7.578947368419942 -5 0  8.407407407405314 -5 0  8.814814814810628 -5 0  9.222222222215942 -5 0  9.629629629621256 -5 0  10.03703703702657 -5 0  10.44444444443188 -5 0  10.8518518518372 -5 0  11.25925925924251 -5 0  11.66666666664783 -5 0  12.07407407405314 -5 0  12.48148148145846 -5 0  12.88888888886377 -5 0  13.29629629626908 -5 0  13.7037037036744 -5 0  14.11111111107971 -5 0  14.51851851848502 -5 0  14.92592592589034 -5 0  15.33333333329565 -5 0  15.74074074070096 -5 0  16.14814814810754 -5 0  16.55555555551614 -5 0  16.96296296292474 -5 0  17.37037037033335 -5 0  17.77777777774195 -5 0  18.18518518515056 -5 0  18.59259259255916 -5 0  18.99999999996776 -5 0  19.40740740737636 -5 0  19.81481481478497 -5 0  20.22222222219357 -5 0  20.62962962960217 -5 0  21.03703703701077 -5 0  21.44444444441937 -5 0  21.85185185182797 -5 0  22.25925925923657 -5 0  22.66666666664518 -5 0  23.07407407405378 -5 0  23.48148148146238 -5 0  23.88888888887098 -5 0  24.29629629627958 -5 0  24.70370370368818 -5 0  25.11111111109678 -5 0  25.51851851850539 -5 0  25.92592592591399 -5 0  26.33333333332259 -5 0  26.74074074073119 -5 0  27.14814814813979 -5 0  27.55555555554839 -5 0  27.96296296295699 -5 0  28.3703703703656 -5 0  28.7777777777742 -5 0  29.1851851851828 -5 0  29.5925925925914 -5 0  30.41666666667852 -5 0  30.83333333335704 -5 0  31.25000000003556 -5 0  31.66666666671408 -5 0  32.08333333338936 -5 0  32.50000000005308 -5 0  32.9166666667168 -5 0  33.33333333338052 -5 0  33.75000000004424 -5 0  34.16666666670795 -5 0  34.58333333337167 -5 0  35.00000000003539 -5 0  35.41666666669911 -5 0  35.83333333336282 -5 0  36.25000000002654 -5 0  36.66666666669026 -5 0  37.08333333335398 -5 0  37.50000000001769 -5 0  37.91666666668141 -5 0  38.33333333334513 -5 0  38.75000000000885 -5 0  39.16666666667257 -5 0  39.58333333333628 -5 0  40 -4.583333333332821 0  40 -4.166666666665642 0  40 -3.74999999999855 0  40 -3.333333333333135 0  40 -2.916666666667806 0  40 -2.500000000002478 0  40 -2.083333333337148 0  40 -1.666666666671818 0  40 -1.250000000006488 0  40 -0.8333333333405228 0  40 -0.4166666666733416 0  40 -6.163070054299169e-12 0  40 0.4166666666610173 0  40 0.8333333333281976 0  40 1.249999999995378 0  40 1.666666666662558 0  40 2.083333333329739 0  40 2.499999999996919 0  40 2.916666666664099 0  40 3.33333333333128 0  40 3.74999999999846 0  40 4.166666666665641 0  40 4.583333333332821 0  39.58333333333628 5 0  39.16666666667256 5 0  38.75000000000885 5 0  38.33333333334513 5 0  37.91666666668141 5 0  37.50000000001769 5 0  37.08333333335398 5 0  36.66666666669025 5 0  36.25000000002654 5 0  35.83333333336282 5 0  35.41666666669911 5 0  35.00000000003539 5 0  34.58333333337167 5 0  34.16666666670795 5 0  33.75000000004424 5 0  33.33333333338052 5 0  32.9166666667168 5 0  32.50000000005308 5 0  32.08333333338936 5 0  31.66666666671408 5 0  31.25000000003556 5 0  30.83333333335704 5 0  30.41666666667852 5 0  29.59259259259259 5 0  29.18518518518519 5 0  28.77777777777778 5 0  28.37037037037037 5 0  27.96296296296296 5 0  27.55555555555556 5 0  27.14814814814815 5 0  26.74074074074074 5 0  26.33333333333333 5 0  25.92592592592593 5 0  25.51851851851852 5 0  25.11111111111111 5 0  24.7037037037037 5 0  24.2962962962963 5 0  23.88888888888889 5 0  23.48148148148148 5 0  23.07407407407408 5 0  22.66666666666667 5 0  22.25925925925926 5 0  21.85185185185185 5 0  21.44444444444445 5 0  21.03703703703704 5 0  20.62962962962963 5 0  20.22222222222222 5 0  19.81481481481482 5 0  19.40740740740741 5 0  19 5 0  18.5925925925926 5 0  18.18518518518519 5 0  17.77777777777778 5 0  17.37037037037037 5 0  16.96296296296296 5 0  16.55555555555556 5 0  16.14814814814815 5 0  15.74074074074074 5 0  15.33333333333333 5 0  14.92592592592593 5 0  14.51851851851852 5 0  14.11111111111111 5 0  13.70370370370371 5 0  13.2962962962963 5 0  12.88888888888889 5 0  12.48148148148148 5 0  12.07407407407408 5 0  11.66666666666667 5 0  11.25925925925926 5 0  10.85185185185185 5 0  10.44444444444445 5 0  10.03703703703704 5 0  9.629629629629633 5 0  9.222222222222221 5 0  8.814814814814817 5 0  8.407407407407408 5 0  7.5789473684193 5 0  7.157894736838599 5 0  6.73684210526082 5 0  6.315789473684795 5 0  5.894736842108769 5 0  5.473684210532742 5 0  5.052631578956715 5 0  4.631578947380689 5 0  4.210526315804662 5 0  3.789473684226299 5 0  3.368421052645599 5 0  2.947368421064898 5 0  2.526315789484198 5 0  2.105263157903499 5 0  1.6842105263228 5 0  1.2631578947421 5 0  0.8421052631613994 5 0  0.4210526315806993 5 0  0 4.545454545454545 0  0 4.09090909090909 0  0 3.636363636363634 0  0 3.18181818181818 0  0 2.727272727272726 0  0 2.272727272727271 0  0 1.818181818181817 0  0 1.363636363636363 0  0 0.9090909090909092 0  0 0.454545454545455 0  0 -0.4545454545450807 0  0 -0.9090909090895867 0  0 -1.363636363633713 0  0 -1.818181818177841 0  0 -2.272727272723127 0  0 -2.727272727269273 0  0 -3.181818181815419 0  0 -3.636363636361564 0  0 -4.090909090907709 0  0 -4.545454545453855 0  8 -4.499999999999999 0  8 -3.999999999999999 0  8 -3.499999999999999 0  8 -3 0  8.137254901963859 -2.5 0  8.274509803926303 -2.5 0  8.411764705886863 -2.5 0  8.549019607849138 -2.5 0  8.686274509809513 -2.5 0  8.82352941176989 -2.5 0  8.960784313730265 -2.5 0  9.098039215690642 -2.5 0  9.235294117651017 -2.5 0  9.372549019611395 -2.5 0  9.50980392157177 -2.5 0  9.647058823532147 -2.5 0  9.784313725492522 -2.5 0  9.921568627452897 -2.5 0  10.05882352941327 -2.5 0  10.19607843137365 -2.5 0  10.33333333333402 -2.5 0  10.4705882352944 -2.5 0  10.60784313725478 -2.5 0  10.74509803921515 -2.5 0  10.88235294117553 -2.5 0  11.0196078431359 -2.5 0  11.15686274509628 -2.5 0  11.29411764705665 -2.5 0  11.43137254901703 -2.5 0  11.56862745097915 -2.5 0  11.70588235294301 -2.5 0  11.84313725490686 -2.5 0  11.98039215687072 -2.5 0  12.11764705883209 -2.5 0  12.25490196079247 -2.5 0  12.39215686275285 -2.5 0  12.52941176471322 -2.5 0  12.6666666666736 -2.5 0  12.80392156863397 -2.5 0  12.94117647059435 -2.5 0  13.07843137255473 -2.5 0  13.2156862745151 -2.5 0  13.35294117647548 -2.5 0  13.49019607843586 -2.5 0  13.62745098039623 -2.5 0  13.76470588235661 -2.5 0  13.90196078431699 -2.5 0  14.03921568627736 -2.5 0  14.17647058823774 -2.5 0  14.31372549019812 -2.5 0  14.45098039215849 -2.5 0  14.58823529411887 -2.5 0  14.72549019607925 -2.5 0  14.86274509803962 -2.5 0  15.20270270270254 -2.5 0  15.40540540540509 -2.5 0  15.60810810810763 -2.5 0  15.81081081081017 -2.5 0  16.01351351351227 -2.5 0  16.21621621621265 -2.5 0  16.41891891891279 -2.5 0  16.62162162161294 -2.5 0  16.82432432431308 -2.5 0  17.02702702701322 -2.5 0  17.22972972971337 -2.5 0  17.43243243241351 -2.5 0  17.63513513511365 -2.5 0  17.83783783781379 -2.5 0  18.04054054051394 -2.5 0  18.24324324321408 -2.5 0  18.44594594591422 -2.5 0  18.64864864861436 -2.5 0  18.85135135131451 -2.5 0  19.05405405401465 -2.5 0  19.25675675671479 -2.5 0  19.45945945941494 -2.5 0  19.66216216211508 -2.5 0  19.86486486481522 -2.5 0  20.06756756751536 -2.5 0  20.27027027021551 -2.5 0  20.47297297291565 -2.5 0  20.6756756756158 -2.5 0  20.87837837831594 -2.5 0  21.08108108101608 -2.5 0  21.28378378371622 -2.5 0  21.48648648641637 -2.5 0  21.68918918911651 -2.5 0  21.89189189181666 -2.5 0  22.0945945945168 -2.5 0  22.29729729721694 -2.5 0  22.49999999991778 -2.5 0  22.70270270262203 -2.5 0  22.90540540532697 -2.5 0  23.10810810803191 -2.5 0  23.31081081073686 -2.5 0  23.5135135134418 -2.5 0  23.71621621614674 -2.5 0  23.91891891885169 -2.5 0  24.12162162155663 -2.5 0  24.32432432426158 -2.5 0  24.52702702696652 -2.5 0  24.72972972967146 -2.5 0  24.93243243237641 -2.5 0  25.13513513508135 -2.5 0  25.3378378377863 -2.5 0  25.54054054049124 -2.5 0  25.74324324319618 -2.5 0  25.94594594590112 -2.5 0  26.14864864860607 -2.5 0  26.35135135131101 -2.5 0  26.55405405401596 -2.5 0  26.7567567567209 -2.5 0  26.95945945942584 -2.5 0  27.16216216213079 -2.5 0  27.36486486483573 -2.5 0  27.56756756754068 -2.5 0  27.77027027024562 -2.5 0  27.97297297295056 -2.5 0  28.1756756756555 -2.5 0  28.37837837836045 -2.5 0  28.5810810810654 -2.5 0  28.78378378377034 -2.5 0  28.98648648647528 -2.5 0  29.18918918918023 -2.5 0  29.39189189188517 -2.5 0  29.59459459459011 -2.5 0  29.79729729729506 -2.5 0  30 -3.000000000000001 0  30 -3.500000000000001 0  30 -4.000000000000001 0  30 -4.5 0  8 4.499999999999999 0  8 3.999999999999999 0  8 3.499999999999999 0  8 3 0  8.137254901963859 2.5 0  8.274509803926303 2.5 0  8.411764705886863 2.5 0  8.549019607849138 2.5 0  8.686274509809513 2.5 0  8.82352941176989 2.5 0  8.960784313730265 2.5 0  9.098039215690642 2.5 0  9.235294117651017 2.5 0  9.372549019611395 2.5 0  9.50980392157177 2.5 0  9.647058823532147 2.5 0  9.784313725492522 2.5 0  9.921568627452897 2.5 0  10.05882352941327 2.5 0  10.19607843137365 2.5 0  10.33333333333402 2.5 0  10.4705882352944 2.5 0  10.60784313725478 2.5 0  10.74509803921515 2.5 0  10.88235294117553 2.5 0  11.0196078431359 2.5 0  11.15686274509628 2.5 0  11.29411764705665 2.5 0  11.43137254901703 2.5 0  11.56862745097915 2.5 0  11.70588235294301 2.5 0  11.84313725490686 2.5 0  11.98039215687072 2.5 0  12.11764705883209 2.5 0  12.25490196079247 2.5 0  1
[...]
<PointData  Vectors="f_17"> 
<DataArray  type="Float64"  Name="f_17"  NumberOfComponents="3" format="ascii">1.0000001329286654e+00 0.0000000000000000e+00 0.0000000000000000e+00  1.0388543142188131e+00 0.0000000000000000e+00 0.0000000000000000e+00  1.0611315050979300e+00 0.0000000000000000e+00 0.0000000000000000e+00  1.0885034904656914e+00 0.0000000000000000e+00 0.0000000000000000e+00  1.0891606681694332e+00 0.0000000000000000e+00 0.0000000000000000e+00  1.0566794745696320e+00 0.0000000000000000e+00 0.0000000000000000e+00  1.0420660888159561e+00 0.0000000000000000e+00 0.0000000000000000e+00  1.0000001329286654e+00 0.0000000000000000e+00 0.0000000000000000e+00  1.0182393651890678e+00 -4.9346485945211550e-02 0.0000000000000000e+00  1.0033999106605709e+00 6.4788216902892742e-02 0.0000000000000000e+00  1.0628815562683749e+00 7.6681227998919646e-02 0.0000000000000000e+00  1.0701726584854141e+00 8.9255929013853083e-02 0.0000000000000000e+00  1.1297958389781264e+00 2.4570741016221802e-02 0.0000000000000000e+00  1.0245402128608991e+00 5.2314040959438562e-02 0.0000000000000000e+00  0.0000000000000000e+00 0.0000000000000000e+00 0.0000000000000000e+00  0.0000000000000000e+00 0.0000000000000000e+00 0.0000000000000000e+00  1.0000001329286654e+00 0.0000000000000000e+00 0.0000000000000000e+00  9.9929706272877616e-01 0.0000000000000000e+00 0.0000000000000000e+00  9.9873100992012731e-01 0.0000000000000000e+00 0.0000000000000000e+00  1.0007481423965019e+00 0.0000000000000000e+00 0.0000000000000000e+00  1.0004839477986085e+00 0.0000000000000000e+00 0.0000000000000000e+00  1.0013276187841802e+00 0.0000000000000000e+00 0.0000000000000000e+00  1.0014763552545605e+00 0.0000000000000000e+00 0.0000000000000000e+00  1.0015713244542417e+00 0.0000000000000000e+00 0.0000000000000000e+00  1.0021831513773460e+00 0.0000000000000000e+00 0.0000000000000000e+00  1.0031851615270835e+00 0.0000000000000000e+00 0.0000000000000000e+00  1.0041181935912333e+00 0.0000000000000000e+00 0.0000000000000000e+00  1.0053975828414021e+00 0.0000000000000000e+00 0.0000000000000000e+00  1.0074758146269527e+00 0.0000000000000000e+00 0.0000000000000000e+00  1.0096607145196843e+00 0.0000000000000000e+00 0.0000000000000000e+00  1.0134250147926178e+00 0.0000000000000000e+00 0.0000000000000000e+00  1.0149751550312385e+00 0.0000000000000000e+00 0.0000000000000000e+00  1.0193244800393026e+00 0.0000000000000000e+00 0.0000000000000000e+00  1.0258529860323937e+00 0.0000000000000000e+00 0.0000000000000000e+00  1.0310758255999648e+00 0.0000000000000000e+00 0.0000000000000000e+00  1.0467807541569163e+00 0.0000000000000000e+00 0.0000000000000000e+00  1.0552756340722547e+00 0.0000000000000000e+00 0.0000000000000000e+00  1.0633788666484505e+00 0.0000000000000000e+00 0.0000000000000000e+00  1.0721415773848306e+00 0.0000000000000000e+00 0.0000000000000000e+00  1.0795991943795664e+00 0.0000000000000000e+00 0.0000000000000000e+00  1.0864881167529956e+00 0.0000000000000000e+00 0.0000000000000000e+00  1.0929309483522183e+00 0.0000000000000000e+00 0.0000000000000000e+00  1.0965871096359912e+00 0.0000000000000000e+00 0.0000000000000000e+00  1.0989854681239259e+00 0.0000000000000000e+00 0.0000000000000000e+00  1.0990487894562089e+00 0.0000000000000000e+00 0.0000000000000000e+00  1.0973562192977890e+00 0.0000000000000000e+00 0.0000000000000000e+00  1.0925510554800388e+00 0.0000000000000000e+00 0.0000000000000000e+00  1.0870173709568123e+00 0.0000000000000000e+00 0.0000000000000000e+00  1.0799248824498608e+00 0.0000000000000000e+00 0.0000000000000000e+00  1.0721557288767927e+00 0.0000000000000000e+00 0.0000000000000000e+00  1.0650158123854339e+00 0.0000000000000000e+00 0.0000000000000000e+00  1.0588329640071512e+00 0.0000000000000000e+00 0.0000000000000000e+00  1.0545680870391305e+00 0.0000000000000000e+00 0.0000000000000000e+00  1.0521820052896311e+00 0.0000000000000000e+00 0.0000000000000000e+00  1.0517923245387870e+00 0.0000000000000000e+00 0.0000000000000000e+00  1.0543853131141447e+00 0.0000000000000000e+00 0.0000000000000000e+00  1.0583967870162980e+00 0.0000000000000000e+00 0.0000000000000000e+00  1.0612590699861399e+00 0.0000000000000000e+00 0.0000000000000000e+00  1.0638662324433039e+00 0.0000000000000000e+00 0.0000000000000000e+00  1.0644808318160506e+00 0.0000000000000000e+00 0.0000000000000000e+00  1.0627382096587821e+00 0.0000000000000000e+00 0.0000000000000000e+00  1.0594032572705621e+00 0.0000000000000000e+00 0.0000000000000000e+00  1.0542135658832352e+00 0.0000000000000000e+00 0.0000000000000000e+00  1.0487695944496718e+00 0.0000000000000000e+00 0.0000000000000000e+00  1.0443113901315573e+00 0.0000000000000000e+00 0.0000000000000000e+00  1.0407669075684463e+00 0.0000000000000000e+00 0.0000000000000000e+00  1.0392853406283944e+00 0.0000000000000000e+00 0.0000000000000000e+00  1.0417941765369649e+00 0.0000000000000000e+00 0.0000000000000000e+00  1.0453208081383238e+00 0.0000000000000000e+00 0.0000000000000000e+00  1.0499924502467091e+00 0.0000000000000000e+00 0.0000000000000000e+00  1.0560526754604087e+00 0.0000000000000000e+00 0.0000000000000000e+00  1.0603510549534314e+00 0.0000000000000000e+00 0.0000000000000000e+00  1.0626827016277942e+00 0.0000000000000000e+00 0.0000000000000000e+00  1.0641134688107687e+00 0.0000000000000000e+00 0.0000000000000000e+00  1.0624047439223545e+00 0.0000000000000000e+00 0.0000000000000000e+00  1.0588049639633090e+00 0.0000000000000000e+00 0.0000000000000000e+00  1.0552399187520345e+00 0.0000000000000000e+00 0.0000000000000000e+00  1.0512764426960244e+00 0.0000000000000000e+00 0.0000000000000000e+00  1.0485695288683099e+00 0.0000000000000000e+00 0.0000000000000000e+00  1.0483699956349686e+00 0.0000000000000000e+00 0.0000000000000000e+00  1.0492768444577614e+00 0.0000000000000000e+00 0.0000000000000000e+00  1.0516493701331135e+00 0.0000000000000000e+00 0.0000000000000000e+00  1.0577032722147426e+00 0.0000000000000000e+00 0.0000000000000000e+00  1.0618158495649423e+00 0.0000000000000000e+00 0.0000000000000000e+00  1.0635847465058132e+00 0.0000000000000000e+00 0.0000000000000000e+00  1.0648299664239380e+00 0.0000000000000000e+00 0.0000000000000000e+00  1.0657316554344711e+00 0.0000000000000000e+00 0.0000000000000000e+00  1.0637822231493446e+00 0.0000000000000000e+00 0.0000000000000000e+00  1.0576297608899838e+00 0.0000000000000000e+00 0.0000000000000000e+00  1.0540851125692730e+00 0.0000000000000000e+00 0.0000000000000000e+00  1.0520023618090262e+00 0.0000000000000000e+00 0.0000000000000000e+00  1.0526462068195432e+00 0.0000000000000000e+00 0.0000000000000000e+00  1.0553622620491794e+00 0.0000000000000000e+00 0.0000000000000000e+00  1.0588518696442195e+00 0.0000000000000000e+00 0.0000000000000000e+00  1.0630863356967661e+00 0.0000000000000000e+00 0.0000000000000000e+00  1.0670153193679552e+00 0.0000000000000000e+00 0.0000000000000000e+00  1.0698809870522761e+00 0.0000000000000000e+00 0.0000000000000000e+00  1.0704736066804552e+00 0.0000000000000000e+00 0.0000000000000000e+00  1.0699238784062697e+00 0.0000000000000000e+00 0.0000000000000000e+00  1.0677891281151639e+00 0.0000000000000000e+00 0.0000000000000000e+00  1.0649058058022529e+00 0.0000000000000000e+00 0.0000000000000000e+00  1.0628924292537618e+00 0.0000000000000000e+00 0.0000000000000000e+00  1.0620281793698341e+00 0.0000000000000000e+00 0.0000000000000000e+00  1.0635099053079033e+00 0.0000000000000000e+00 0.0000000000000000e+00  1.0661411585720786e+00 0.0000000000000000e+00 0.0000000000000000e+00  1.0709031285207720e+00 0.0000000000000000e+00 0.0000000000000000e+00  1.0761788349952344e+00 0.0000000000000000e+00 0.0000000000000000e+00  1.0819497048734812e+00 0.0000000000000000e+00 0.0000000000000000e+00  1.0859023622639126e+00 0.0000000000000000e+00 0.0000000000000000e+00  1.0887409997006177e+00 0.0000000000000000e+00 0.0000000000000000e+00  1.0888590298506005e+00 0.0000000000000000e+00 0.0000000000000000e+00  1.0895089687755557e+00 1.3574198165021939e-03 0.0000000000000000e+00  1.0918476861583648e+00 3.6734009114947454e-03 0.0000000000000000e+00  1.0962002401685389e+00 8.4314307865246442e-03 0.0000000000000000e+00  1.1025724148306983e+00 1.8241006320970834e-02 0.0000000000000000e+00  1.1137462030243124e+00 3.7671967497451948e-02 0.0000000000000000e+00  1.1196551843033584e+00 6.8585951244191853e-02 0.0000000000000000e+00  1.1028797780848778e+00 1.1727935735738168e-01 0.0000000000000000e+00  1.0482017012331233e+00 1.7085159806446132e-01 0.0000000000000000e+00  9.5616666215846213e-01 2.2211686205607073e-01 0.0000000000000000e+00  8.5070531996942611e-01 2.5015139429938932e-01 0.0000000000000000e+00  7.6458021501943607e-01 2.6547056918616213e-01 0.0000000000000000e+00  7.2014910643746599e-01 2.7228925002057486e-01 0.0000000000000000e+00  7.2995460900367615e-01 2.7897794344763088e-01 0.0000000000000000e+00  7.8786734133941638e-01 2.8410915723099583e-01 0.0000000000000000e+00  8.7690032650198479e-01 2.7081643567669073e-01 0.0000000000000000e+00  9.6457902307645371e-01 2.3133900769841334e-01 0.0000000000000000e+00  1.0239486513369154e+00 1.7555093157085058e-01 0.0000000000000000e+00  1.0529642752189809e+00 1.1706248167348987e-01 0.0000000000000000e+00  1.0682113688609409e+00 7.6667301196483933e-02 0.0000000000000000e+00  1.0798238349597362e+00 4.8986526253669838e-02 0.0000000000000000e+00  1.0859244620701731e+00 3.1136248170277599e-02 0.0000000000000000e+00  1.0890037845212646e+00 1.8355933791548866e-02 0.0000000000000000e+00  1.0895300014561662e+00 8.3867903911203825e-03 0.0000000000000000e+00  1.0815441686565039e+00 0.0000000000000000e+00 0.0000000000000000e+00  1.0759442420323388e+00 0.0000000000000000e+00 0.0000000000000000e+00  1.0725833784663639e+00 0.0000000000000000e+00 0.0000000000000000e+00  1.0718760455915237e+00 0.0000000000000000e+00 0.0000000000000000e+00  1.0720809915034095e+00 0.0000000000000000e+00 0.0000000000000000e+00  1.0734095619649022e+00 0.0000000000000000e+00 0.0000000000000000e+00  1.0747461177929534e+00 0.0000000000000000e+00 0.0000000000000000e+00  1.0752051115692716e+00 0.0000000000000000e+00 0.0000000000000000e+00  1.0733852762976981e+00 0.0000000000000000e+00 0.0000000000000000e+00  1.0703496355448248e+00 0.0000000000000000e+00 0.0000000000000000e+00  1.0660138879219920e+00 0.0000000000000000e+00 0.0000000000000000e+00  1.0612479386681806e+00 0.0000000000000000e+00 0.0000000000000000e+00  1.0571974835875708e+00 0.0000000000000000e+00 0.0000000000000000e+00  1.0553761894476310e+00 0.0000000000000000e+00 0.0000000000000000e+00  1.0547330969066218e+00 0.0000000000000000e+00 0.0000000000000000e+00  1.0569538688181686e+00 0.0000000000000000e+00 0.0000000000000000e+00  1.0593169273414382e+00 0.0000000000000000e+00 0.0000000000000000e+00  1.0627015892882168e+00 0.0000000000000000e+00 0.0000000000000000e+00  1.0652862470137272e+00 0.0000000000000000e+00 0.0000000000000000e+00  1.0671063642877279e+00 0.0000000000000000e+00 0.0000000000000000e+00  1.0667982360738792e+00 0.0000000000000000e+00 0.0000000000000000e+00  1.0641749338327506e+00 0.0000000000000000e+00 0.0000000000000000e+00  1.0608490997123368e+00 0.0000000000000000e+00 0.0000000000000000e+00  1.0524155957308714e+00 0.0000000000000000e+00 0.0000000000000000e+00  1.0499926793525463e+00 0.0000000000000000e+00 0.0000000000000000e+00  1.0483690552833991e+00 0.0000000000000000e+00 0.0000000000000000e+00  1.0501912134965949e+00 0.0000000000000000e+00 0.0000000000000000e+00  1.0545676597747935e+00 0.0000000000000000e+00 0.0000000000000000e+00  1.0585907869483648e+00 0.0000000000000000e+00 0.0000000000000000e+00  1.0607556607601525e+00 0.0000000000000000e+00 0.0000000000000000e+00  1.0640527573151528e+00 0.0000000000000000e+00 0.0000000000000000e+00  1.0653028266334361e+00 0.0000000000000000e+00 0.0000000000000000e+00  1.0635325699958649e+00 0.0000000000000000e+00 0.0000000000000000e+00  1.0603723392175428e+00 0.0000000000000000e+00 0.0000000000000000e+00  1.0558705321280184e+00 0.0000000000000000e+00 0.0000000000000000e+00  1.0503622889165658e+00 0.0000000000000000e+00 0.0000000000000000e+00  1.0464608929712098e+00 0.0000000000000000e+00 0.0000000000000000e+00  1.0441098761246179e+00 0.0000000000000000e+00 0.0000000000000000e+00  1.0429550986040237e+00 0.0000000000000000e+00 0.0000000000000000e+00  1.0452818227952732e+00 0.0000000000000000e+00 0.0000000000000000e+00  1.0492382569708549e+00 0.0000000000000000e+00 0.0000000000000000e+00  1.0532490452503831e+00 0.0000000000000000e+00 0.0000000000000000e+00  1.0579761302646138e+00 0.0000000000000000e+00 0.0000000000000000e+00  1.0613033763800652e+00 0.0000000000000000e+00 0.0000000000000000e+00  1.0615185697484506e+00 0.0000000000000000e+00 0.0000000000000000e+00  1.0606410613086497e+00 0.0000000000000000e+00 0.0000000000000000e+00  1.0574795809890036e+00 0.0000000000000000e+00 0.0000000000000000e+00  1.0519312445354212e+00 0.0000000000000000e+00 0.0000000000000000e+00  1.0465436951527365e+00 0.0000000000000000e+00 0.0000000000000000e+00  1.0419554150127803e+00 0.0000000000000000e+00 0.0000000000000000e+00  1.0388491494402783e+00 0.0000000000000000e+00 0.0000000000000000e+00  1.0385143788362483e+00 0.0000000000000000e+00 0.0000000000000000e+00  1.0407795166671023e+00 0.0000000000000000e+00 0.0000000000000000e+00  1.0449178152721190e+00 0.0000000000000000e+00 0.0000000000000000e+00  1.0513825015960456e+00 0.0000000000000000e+00 0.0000000000000000e+00  1.0572501829266128e+00 0.0000000000000000e+00 0.0000000000000000e+00  1.0632250125653930e+00 0.0000000000000000e+00 0.0000000000000000e+00  1.0688880879645439e+00 0.0000000000000000e+00 0.0000000000000000e+00  1.0728691557642953e+00 0.0000000000000000e+00 0.0000000000000000e+00  1.0747968339600986e+00 0.0000000000000000e+00 0.0000000000000000e+00  1.0750839149490594e+00 0.0000000000000000e+00 0.0000000000000000e+00  1.0752108272660663e+00 0.0000000000000000e+00 0.0000000000000000e+00  1.0761872417726639e+00 0.0000000000000000e+00 0.0000000000000000e+00  1.0769450500492770e+00 0.0000000000000000e+00 0.0000000000000000e+00  1.0783307788177778e+00 0.0000000000000000e+00 0.0000000000000000e+00  1.0817384450708014e+00 0.0000000000000000e+00 0.0000000000000000e+00  1.0836473122264965e+00 0.0000000000000000e+00 0.0000000000000000e+00  1.0859502386134015e+00 0.0000000000000000e+00 0.0000000000000000e+00  1.0868290038706754e+00 0.0000000000000000e+00 0.0000000000000000e+00  1.0855170373317284e+00 0.0000000000000000e+00 0.0000000000000000e+00  1.0825913423026428e+00 0.0000000000000000e+00 0.0000000000000000e+00  1.0782824496078058e+00 0.0000000000000000e+00 0.0000000000000000e+00  1.0725199746030905e+00 0.0000000000000000e+00 0.0000000000000000e+00  1.0649793564796393e+00 0.0000000000000000e+00 0.0000000000000000e+00  1.0578407202305171e+00 0.0000000000000000e+00 0.0000000000000000e+00  1.0498457642119952e+00 0.0000000000000000e+00 0.0000000000000000e+00  1.0344547408812226e+00 0.0000000000000000e+00 0.0000000000000000e+00  1.0277992149237558e+00 0.0000000000000000e+00 0.0000000000000000e+00  1.0225146177826727e+00 0.0000000000000000e+00 0.0000000000000000e+00  1.0177683136707976e+00 0.0000000000000000e+00 0.0000000000000000e+00  1.0138886282012682e+00 0.0000000000000000e+00 0.0000000000000000e+00  1.0108185003543635e+00 0.0000000000000000e+00 0.0000000000000000e+00  1.0084610991798555e+00 0.0000000000000000e+00 0.0000000000000000e+00  1.0061636005096035e+00 0.0000000000000000e+00 0.0000000000000000e+00  1.0045273409347373e+00 0.0000000000000000e+00 0.0000000000000000e+00  1.0033450850679000e+00 0.0000000000000000e+00 0.0000000000000000e+00  1.0019946928842760e+00 0.0000000000000000e+00 0.0000000000000000e+00  1.0016832926595025e+00 0.0000000000000000e+00 0.0000000000000000e+00  1.0004806675961708e+00 0.0000000000000000e+00 0.0000000000000000e+00  1.0003459809210711e+00 0.0000000000000000e+00 0.0000000000000000e+00  9.9986829319520865e-01 0.0000000000000000e+00 0.0000000000000000e+00  1.0005003744786687e+00 0.0000000000000000e+00 0.0000000000000000e+00  1.0002441690933006e+00 0.0000000000000000e+00 0.0000000000000000e+00  9.9979524739870707e-01 0.0000000000000000e+00 0.0000000000000000e+00  1.0000001329286654e+00 0.0000000000000000e+00 0.0000000000000000e+00  1.0000001329286654e+00 0.0000000000000000e+00 0.0000000000000000e+00  1.0000001329286654e+00 0.0000000000000000e+00 0.0000000000000000e+00  1.0000001329286654e+00 0.0000000000000000e+00 0.0000000000000000e+00  1.0000001329286654e+00 0.0000000000000000e+00 0.0000000000000000e+00  1.0000001329286654e+00 0.0000000000000000e+00 0.0000000000000000e+00  1.0000001329286654e+00 0.0000000000000000e+00 0.0000000000000000e+00  1.0000001329286654e+00 0.0000000000000000e+00 0.0000000000000000e+00  1.0000001329286654e+00 0.0000000000000000e+00 0.0000000000000000e+00  1.0000001329286654e+00 0.0000000000000000e+00 0.0000000000000000e+00  1.0000001329286654e+00 0.0000000000000000e+00 0.0000000000000000e+00  1.0000001329286654e+00 0.0000000000000000e+00 0.0000000000000000e+00  1.0000001329286654e+00 0.0000000000000000e+00 0.0000000000000000e+00  1.0000001329286654e+00 0.0000000000000000e+00 0.0000000000000000e+00  1.0000001329286654e+00 0.0000000000000000e+00 0.0000000000000000e+00  1.0000001329286654e+00 0.0000000000000000e+00 0.0000000000000000e+00  1.0000001329286654e+00 0.0000000000000000e+00 0.0000000000000000e+00  1.0000001329286654e+00 0.0000000000000000e+00 0.0000000000000000e+00  1.0000001329286654e+00 0.0000000000000000e+00 0.0000000000000000e+00  1.0000001329286654e+00 0.0000000000000000e+00 0.0000000000000000e+00  1.0381983367611263e+00 -9.2005092020989564e-03 0.0000000000000000e+00  1.0350757827568040e+00 -1.8556840949912234e-02 0.0000000000000000e+00  1.0326749570329825e+00 -2.8588297508370709e-02 0.0000000000000000e+00  1.0267857598952883e+00 -3.8933676500648016e-02 0.0000000000000000e+00  1.0207296046058385e+00 -5.2978283559179620e-02 0.0000000000000000e+00  1.0249460941400141e+00 -5.6286156542308334e-02 0.0000000000000000e+00  1.0287469507969120e+00 -5.9675727722161835e-02 0.0000000000000000e+00  1.0335316174430484e+00 -6.2768693563484412e-02 0.0000000000000000e+00  1.0385422861813201e+00 -6.5727607307784111e-02 0.0000000000000000e+00  1.0441329186024155e+00 -6.8277412493390657e-02 0.0000000000000000e+00  1.0502548803486647e+00 -7.0497820320997509e-02 0.0000000000000000e+00  1.0567384359857286e+00 -7.2088485974757074e-02 0.0000000000000000e+00  1.0636777804874458e+00 -7.3157977792155840e-02 0.0000000000000000e+00  1.0706362197037933e+00 -7.3392928203009203e-02 0.0000000000000000e+00  1.0778326566689904e+00 -7.3057784961551409e-02 0.0000000000000000e+00  1.0849325774568865e+00 -7.2065616567756383e-02 0.0000000000000000e+00  1.0920326501760618e+00 -7.0107425822705266e-02 0.0000000000000000e+00  1.0986561140429429e+00 -6.7363478553023645e-02 0.0000000000000000e+00  1.1048703277249552e+00 -6.4146844909252487e-02 0.0000000000000000e+00  1.1105601294720346e+00 -6.0357948137032234e-02 0.0000000000000000e+00  1.1155846291136544e+00 -5.6164903307007671e-02 0.0000000000000000e+00  1.1199163671174472e+00 -5.1668342498277973e-02 0.0000000000000000e+00  1.1236847811743753e+00 -4.7134095860492067e-02 0.0000000000000000e+00  1.1268338623753205e+00 -4.2427690219147669e-02 0.0000000000000000e+00  1.1294906066743648e+00 -3.8049505907559109e-02 0.0000000000000000e+00  1.1317260114002026e+00 -3.3531452240259656e-02 0.0000000000000000e+00  1.1336485150566766e+00 -2.9236527822717542e-02 0.0000000000000000e+00  1.1354802013114322e+00 -2.5203327894323897e-02 0.0000000000000000e+00  1.1372101833167241e+00 -2.1282073580346145e-02 0.0000000000000000e+00  1.1389248065925714e+00 -1.7367599715103849e-02 0.0000000000000000e+00  1.1406798182265678e+00 -1.3265739694161147e-02 0.0000000000000000e+00  1.1425026737382937e+00 -8.9492066507412919e-03 0.0000000000000000e+00  1.1442460525910338e+00 -4.2066691961529807e-03 0.0000000000000000e+00  1.1459222246980783e+00 1.0579135848798986e-03 0.0000000000000000e+00  1.1472831828323489e+00 6.8957230803257949e-03 0.0000000000000000e+00  1.1481860158051886e+00 1.3386494983168185e-02 0.