<?xml version="1.0"?>
<VTKFile type="UnstructuredGrid"  version="0.1"  >
<UnstructuredGrid>
<Piece  NumberOfPoints="10199" NumberOfCells="20110">
<Points>
<DataArray  type="Float64"  NumberOfComponents="3"  format="ascii">0 -5 0  8 -5 0  30 -5 0  40 -5 0  40 5 0  30 5 0  8 5 0  0 5 0  8 -2.5 0  15 -2.5 0  30 -2.5 0  30 2.5 0  15 2.5 0  8 2.5 0  10 0.5 0  10 -0.5 0  0 0 0  0.4210526315780956 -5 0  0.8421052631563433 -5 0  1.263157894734281 -5 0  1.684210526311999 -5 0  2.105263157889717 -5 0  2.526315789467435 -5 0  2.947368421045153 -5 0  3.368421052622872 -5 0  3.78947368420059 -5 0  4.210526315779479 -5 0  4.631578947359537 -5 0  5.052631578939595 -5 0  5.473684210519653 -5 0  5.89473684209971 -5 0  6.315789473679768 -5 0  6.736842105259826 -5 0  7.157894736839884 -5 0  7.578947368419942 -5 0  8.407407407405314 -5 0  8.814814814810628 -5 0  9.222222222215942 -5 0  9.629629629621256 -5 0  10.03703703702657 -5 0  10.44444444443188 -5 0  10.8518518518372 -5 0  11.25925925924251 -5 0  11.66666666664783 -5 0  12.07407407405314 -5 0  12.48148148145846 -5 0  12.88888888886377 -5 0  13.29629629626908 -5 0  13.7037037036744 -5 0  14.11111111107971 -5 0  14.51851851848502 -5 0  14.92592592589034 -5 0  15.33333333329565 -5 0  15.74074074070096 -5 0  16.14814814810754 -5 0  16.55555555551614 -5 0  16.96296296292474 -5 0  17.37037037033335 -5 0  17.77777777774195 -5 0  18.18518518515056 -5 0  18.59259259255916 -5 0  18.99999999996776 -5 0  19.40740740737636 -5 0  19.81481481478497 -5 0  20.22222222219357 -5 0  20.62962962960217 -5 0  21.03703703701077 -5 0  21.44444444441937 -5 0  21.85185185182797 -5 0  22.25925925923657 -5 0  22.66666666664518 -5 0  23.07407407405378 -5 0  23.48148148146238 -5 0  23.88888888887098 -5 0  24.29629629627958 -5 0  24.70370370368818 -5 0  25.11111111109678 -5 0  25.51851851850539 -5 0  25.92592592591399 -5 0  26.33333333332259 -5 0  26.74074074073119 -5 0  27.14814814813979 -5 0  27.55555555554839 -5 0  27.96296296295699 -5 0  28.3703703703656 -5 0  28.7777777777742 -5 0  29.1851851851828 -5 0  29.5925925925914 -5 0  30.41666666667852 -5 0  30.83333333335704 -5 0  31.25000000003556 -5 0  31.66666666671408 -5 0  32.08333333338936 -5 0  32.50000000005308 -5 0  32.9166666667168 -5 0  33.33333333338052 -5 0  33.75000000004424 -5 0  34.16666666670795 -5 0  34.58333333337167 -5 0  35.00000000003539 -5 0  35.41666666669911 -5 0  35.83333333336282 -5 0  36.25000000002654 -5 0  36.66666666669026 -5 0  37.08333333335398 -5 0  37.50000000001769 -5 0  37.91666666668141 -5 0  38.33333333334513 -5 0  38.75000000000885 -5 0  39.16666666667257 -5 0  39.58333333333628 -5 0  40 -4.583333333332821 0  40 -4.166666666665642 0  40 -3.74999999999855 0  40 -3.333333333333135 0  40 -2.916666666667806 0  40 -2.500000000002478 0  40 -2.083333333337148 0  40 -1.666666666671818 0  40 -1.250000000006488 0  40 -0.8333333333405228 0  40 -0.4166666666733416 0  40 -6.163070054299169e-12 0  40 0.4166666666610173 0  40 0.8333333333281976 0  40 1.249999999995378 0  40 1.666666666662558 0  40 2.083333333329739 0  40 2.499999999996919 0  40 2.916666666664099 0  40 3.33333333333128 0  40 3.74999999999846 0  40 4.166666666665641 0  40 4.583333333332821 0  39.58333333333628 5 0  39.16666666667256 5 0  38.75000000000885 5 0  38.33333333334513 5 0  37.91666666668141 5 0  37.50000000001769 5 0  37.08333333335398 5 0  36.66666666669025 5 0  36.25000000002654 5 0  35.83333333336282 5 0  35.41666666669911 5 0  35.00000000003539 5 0  34.58333333337167 5 0  34.16666666670795 5 0  33.75000000004424 5 0  33.33333333338052 5 0  32.9166666667168 5 0  32.50000000005308 5 0  32.08333333338936 5 0  31.66666666671408 5 0  31.25000000003556 5 0  30.83333333335704 5 0  30.41666666667852 5 0  29.59259259259259 5 0  29.18518518518519 5 0  28.77777777777778 5 0  28.37037037037037 5 0  27.96296296296296 5 0  27.55555555555556 5 0  27.14814814814815 5 0  26.74074074074074 5 0  26.33333333333333 5 0  25.92592592592593 5 0  25.51851851851852 5 0  25.11111111111111 5 0  24.7037037037037 5 0  24.2962962962963 5 0  23.88888888888889 5 0  23.48148148148148 5 0  23.07407407407408 5 0  22.66666666666667 5 0  22.25925925925926 5 0  21.85185185185185 5 0  21.44444444444445 5 0  21.03703703703704 5 0  20.62962962962963 5 0  20.22222222222222 5 0  19.81481481481482 5 0  19.40740740740741 5 0  19 5 0  18.5925925925926 5 0  18.18518518518519 5 0  17.77777777777778 5 0  17.37037037037037 5 0  16.96296296296296 5 0  16.55555555555556 5 0  16.14814814814815 5 0  15.74074074074074 5 0  15.33333333333333 5 0  14.92592592592593 5 0  14.51851851851852 5 0  14.11111111111111 5 0  13.70370370370371 5 0  13.2962962962963 5 0  12.88888888888889 5 0  12.48148148148148 5 0  12.07407407407408 5 0  11.66666666666667 5 0  11.25925925925926 5 0  10.85185185185185 5 0  10.44444444444445 5 0  10.03703703703704 5 0  9.629629629629633 5 0  9.222222222222221 5 0  8.814814814814817 5 0  8.407407407407408 5 0  7.5789473684193 5 0  7.157894736838599 5 0  6.73684210526082 5 0  6.315789473684795 5 0  5.894736842108769 5 0  5.473684210532742 5 0  5.052631578956715 5 0  4.631578947380689 5 0  4.210526315804662 5 0  3.789473684226299 5 0  3.368421052645599 5 0  2.947368421064898 5 0  2.526315789484198 5 0  2.105263157903499 5 0  1.6842105263228 5 0  1.2631578947421 5 0  0.8421052631613994 5 0  0.4210526315806993 5 0  0 4.545454545454545 0  0 4.09090909090909 0  0 3.636363636363634 0  0 3.18181818181818 0  0 2.727272727272726 0  0 2.272727272727271 0  0 1.818181818181817 0  0 1.363636363636363 0  0 0.9090909090909092 0  0 0.454545454545455 0  0 -0.4545454545450807 0  0 -0.9090909090895867 0  0 -1.363636363633713 0  0 -1.818181818177841 0  0 -2.272727272723127 0  0 -2.727272727269273 0  0 -3.181818181815419 0  0 -3.636363636361564 0  0 -4.090909090907709 0  0 -4.545454545453855 0  8 -4.499999999999999 0  8 -3.999999999999999 0  8 -3.499999999999999 0  8 -3 0  8.137254901963859 -2.5 0  8.274509803926303 -2.5 0  8.411764705886863 -2.5 0  8.549019607849138 -2.5 0  8.686274509809513 -2.5 0  8.82352941176989 -2.5 0  8.960784313730265 -2.5 0  9.098039215690642 -2.5 0  9.235294117651017 -2.5 0  9.372549019611395 -2.5 0  9.50980392157177 -2.5 0  9.647058823532147 -2.5 0  9.784313725492522 -2.5 0  9.921568627452897 -2.5 0  10.05882352941327 -2.5 0  10.19607843137365 -2.5 0  10.33333333333402 -2.5 0  10.4705882352944 -2.5 0  10.60784313725478 -2.5 0  10.74509803921515 -2.5 0  10.88235294117553 -2.5 0  11.0196078431359 -2.5 0  11.15686274509628 -2.5 0  11.29411764705665 -2.5 0  11.43137254901703 -2.5 0  11.56862745097915 -2.5 0  11.70588235294301 -2.5 0  11.84313725490686 -2.5 0  11.98039215687072 -2.5 0  12.11764705883209 -2.5 0  12.25490196079247 -2.5 0  12.39215686275285 -2.5 0  12.52941176471322 -2.5 0  12.6666666666736 -2.5 0  12.80392156863397 -2.5 0  12.94117647059435 -2.5 0  13.07843137255473 -2.5 0  13.2156862745151 -2.5 0  13.35294117647548 -2.5 0  13.49019607843586 -2.5 0  13.62745098039623 -2.5 0  13.76470588235661 -2.5 0  13.90196078431699 -2.5 0  14.03921568627736 -2.5 0  14.17647058823774 -2.5 0  14.31372549019812 -2.5 0  14.45098039215849 -2.5 0  14.58823529411887 -2.5 0  14.72549019607925 -2.5 0  14.86274509803962 -2.5 0  15.20270270270254 -2.5 0  15.40540540540509 -2.5 0  15.60810810810763 -2.5 0  15.81081081081017 -2.5 0  16.01351351351227 -2.5 0  16.21621621621265 -2.5 0  16.41891891891279 -2.5 0  16.62162162161294 -2.5 0  16.82432432431308 -2.5 0  17.02702702701322 -2.5 0  17.22972972971337 -2.5 0  17.43243243241351 -2.5 0  17.63513513511365 -2.5 0  17.83783783781379 -2.5 0  18.04054054051394 -2.5 0  18.24324324321408 -2.5 0  18.44594594591422 -2.5 0  18.64864864861436 -2.5 0  18.85135135131451 -2.5 0  19.05405405401465 -2.5 0  19.25675675671479 -2.5 0  19.45945945941494 -2.5 0  19.66216216211508 -2.5 0  19.86486486481522 -2.5 0  20.06756756751536 -2.5 0  20.27027027021551 -2.5 0  20.47297297291565 -2.5 0  20.6756756756158 -2.5 0  20.87837837831594 -2.5 0  21.08108108101608 -2.5 0  21.28378378371622 -2.5 0  21.48648648641637 -2.5 0  21.68918918911651 -2.5 0  21.89189189181666 -2.5 0  22.0945945945168 -2.5 0  22.29729729721694 -2.5 0  22.49999999991778 -2.5 0  22.70270270262203 -2.5 0  22.90540540532697 -2.5 0  23.10810810803191 -2.5 0  23.31081081073686 -2.5 0  23.5135135134418 -2.5 0  23.71621621614674 -2.5 0  23.91891891885169 -2.5 0  24.12162162155663 -2.5 0  24.32432432426158 -2.5 0  24.52702702696652 -2.5 0  24.72972972967146 -2.5 0  24.93243243237641 -2.5 0  25.13513513508135 -2.5 0  25.3378378377863 -2.5 0  25.54054054049124 -2.5 0  25.74324324319618 -2.5 0  25.94594594590112 -2.5 0  26.14864864860607 -2.5 0  26.35135135131101 -2.5 0  26.55405405401596 -2.5 0  26.7567567567209 -2.5 0  26.95945945942584 -2.5 0  27.16216216213079 -2.5 0  27.36486486483573 -2.5 0  27.56756756754068 -2.5 0  27.77027027024562 -2.5 0  27.97297297295056 -2.5 0  28.1756756756555 -2.5 0  28.37837837836045 -2.5 0  28.5810810810654 -2.5 0  28.78378378377034 -2.5 0  28.98648648647528 -2.5 0  29.18918918918023 -2.5 0  29.39189189188517 -2.5 0  29.59459459459011 -2.5 0  29.79729729729506 -2.5 0  30 -3.000000000000001 0  30 -3.500000000000001 0  30 -4.000000000000001 0  30 -4.5 0  8 4.499999999999999 0  8 3.999999999999999 0  8 3.499999999999999 0  8 3 0  8.137254901963859 2.5 0  8.274509803926303 2.5 0  8.411764705886863 2.5 0  8.549019607849138 2.5 0  8.686274509809513 2.5 0  8.82352941176989 2.5 0  8.960784313730265 2.5 0  9.098039215690642 2.5 0  9.235294117651017 2.5 0  9.372549019611395 2.5 0  9.50980392157177 2.5 0  9.647058823532147 2.5 0  9.784313725492522 2.5 0  9.921568627452897 2.5 0  10.05882352941327 2.5 0  10.19607843137365 2.5 0  10.33333333333402 2.5 0  10.4705882352944 2.5 0  10.60784313725478 2.5 0  10.74509803921515 2.5 0  10.88235294117553 2.5 0  11.0196078431359 2.5 0  11.15686274509628 2.5 0  11.29411764705665 2.5 0  11.43137254901703 2.5 0  11.56862745097915 2.5 0  11.70588235294301 2.5 0  11.84313725490686 2.5 0  11.98039215687072 2.5 0  12.11764705883209 2.5 0  12.25490196079247 2.5 0  1
[...]
<PointData  Vectors="f_17"> 
<DataArray  type="Float64"  Name="f_17"  NumberOfComponents="3" format="ascii">1.0000001298993504e+00 0.0000000000000000e+00 0.0000000000000000e+00  1.0422962600082004e+00 0.0000000000000000e+00 0.0000000000000000e+00  1.0512807397090411e+00 0.0000000000000000e+00 0.0000000000000000e+00  1.0749386440383344e+00 0.0000000000000000e+00 0.0000000000000000e+00  1.0895304940947061e+00 0.0000000000000000e+00 0.0000000000000000e+00  1.0632080274447218e+00 0.0000000000000000e+00 0.0000000000000000e+00  1.0385499866902292e+00 0.0000000000000000e+00 0.0000000000000000e+00  1.0000001298993504e+00 0.0000000000000000e+00 0.0000000000000000e+00  1.0228974887922797e+00 -5.2504651718895845e-02 0.0000000000000000e+00  1.0843414666459255e+00 -6.0001995284584712e-02 0.0000000000000000e+00  1.0153698999260121e+00 -6.0219241722399341e-02 0.0000000000000000e+00  1.1053225791955212e+00 -5.9175790080454940e-02 0.0000000000000000e+00  1.0351016441307124e+00 -8.6982994450738371e-02 0.0000000000000000e+00  1.0198915417701160e+00 4.9069814662184998e-02 0.0000000000000000e+00  0.0000000000000000e+00 0.0000000000000000e+00 0.0000000000000000e+00  0.0000000000000000e+00 0.0000000000000000e+00 0.0000000000000000e+00  1.0000001298993504e+00 0.0000000000000000e+00 0.0000000000000000e+00  9.9928133920107476e-01 0.0000000000000000e+00 0.0000000000000000e+00  9.9869747646096341e-01 0.0000000000000000e+00 0.0000000000000000e+00  1.0007473838724865e+00 0.0000000000000000e+00 0.0000000000000000e+00  1.0005524179788847e+00 0.0000000000000000e+00 0.0000000000000000e+00  1.0015456202178012e+00 0.0000000000000000e+00 0.0000000000000000e+00  1.0019091113196432e+00 0.0000000000000000e+00 0.0000000000000000e+00  1.0022903373069068e+00 0.0000000000000000e+00 0.0000000000000000e+00  1.0032263420051126e+00 0.0000000000000000e+00 0.0000000000000000e+00  1.0045527363852231e+00 0.0000000000000000e+00 0.0000000000000000e+00  1.0057840465267420e+00 0.0000000000000000e+00 0.0000000000000000e+00  1.0073263023555992e+00 0.0000000000000000e+00 0.0000000000000000e+00  1.0096194958012896e+00 0.0000000000000000e+00 0.0000000000000000e+00  1.0119864661692350e+00 0.0000000000000000e+00 0.0000000000000000e+00  1.0158944093421407e+00 0.0000000000000000e+00 0.0000000000000000e+00  1.0175928477973484e+00 0.0000000000000000e+00 0.0000000000000000e+00  1.0221158506733885e+00 0.0000000000000000e+00 0.0000000000000000e+00  1.0288540062832463e+00 0.0000000000000000e+00 0.0000000000000000e+00  1.0342916852573074e+00 0.0000000000000000e+00 0.0000000000000000e+00  1.0503461288084319e+00 0.0000000000000000e+00 0.0000000000000000e+00  1.0587872260043822e+00 0.0000000000000000e+00 0.0000000000000000e+00  1.0665470754410624e+00 0.0000000000000000e+00 0.0000000000000000e+00  1.0745427383758808e+00 0.0000000000000000e+00 0.0000000000000000e+00  1.0806448329028806e+00 0.0000000000000000e+00 0.0000000000000000e+00  1.0855001418120618e+00 0.0000000000000000e+00 0.0000000000000000e+00  1.0892653400879544e+00 0.0000000000000000e+00 0.0000000000000000e+00  1.0897722813764179e+00 0.0000000000000000e+00 0.0000000000000000e+00  1.0888743129364347e+00 0.0000000000000000e+00 0.0000000000000000e+00  1.0861324182112635e+00 0.0000000000000000e+00 0.0000000000000000e+00  1.0827482585590782e+00 0.0000000000000000e+00 0.0000000000000000e+00  1.0780939717567228e+00 0.0000000000000000e+00 0.0000000000000000e+00  1.0749693205761148e+00 0.0000000000000000e+00 0.0000000000000000e+00  1.0726954825464419e+00 0.0000000000000000e+00 0.0000000000000000e+00  1.0714817621473842e+00 0.0000000000000000e+00 0.0000000000000000e+00  1.0716887782651443e+00 0.0000000000000000e+00 0.0000000000000000e+00  1.0722817298507594e+00 0.0000000000000000e+00 0.0000000000000000e+00  1.0726478177561294e+00 0.0000000000000000e+00 0.0000000000000000e+00  1.0715775352362273e+00 0.0000000000000000e+00 0.0000000000000000e+00  1.0684955856400480e+00 0.0000000000000000e+00 0.0000000000000000e+00  1.0646996181784716e+00 0.0000000000000000e+00 0.0000000000000000e+00  1.0597597489527701e+00 0.0000000000000000e+00 0.0000000000000000e+00  1.0527789135079590e+00 0.0000000000000000e+00 0.0000000000000000e+00  1.0468800684170936e+00 0.0000000000000000e+00 0.0000000000000000e+00  1.0419395935680555e+00 0.0000000000000000e+00 0.0000000000000000e+00  1.0389592341982177e+00 0.0000000000000000e+00 0.0000000000000000e+00  1.0388791170744742e+00 0.0000000000000000e+00 0.0000000000000000e+00  1.0409228972260325e+00 0.0000000000000000e+00 0.0000000000000000e+00  1.0450462679064636e+00 0.0000000000000000e+00 0.0000000000000000e+00  1.0508374751226259e+00 0.0000000000000000e+00 0.0000000000000000e+00  1.0558000392105655e+00 0.0000000000000000e+00 0.0000000000000000e+00  1.0595316075597827e+00 0.0000000000000000e+00 0.0000000000000000e+00  1.0627105703287487e+00 0.0000000000000000e+00 0.0000000000000000e+00  1.0623670177853288e+00 0.0000000000000000e+00 0.0000000000000000e+00  1.0595715109356827e+00 0.0000000000000000e+00 0.0000000000000000e+00  1.0560833327174235e+00 0.0000000000000000e+00 0.0000000000000000e+00  1.0512367447574928e+00 0.0000000000000000e+00 0.0000000000000000e+00  1.0467286682667474e+00 0.0000000000000000e+00 0.0000000000000000e+00  1.0451858784156285e+00 0.0000000000000000e+00 0.0000000000000000e+00  1.0446370398124578e+00 0.0000000000000000e+00 0.0000000000000000e+00  1.0461502071830633e+00 0.0000000000000000e+00 0.0000000000000000e+00  1.0502601346460321e+00 0.0000000000000000e+00 0.0000000000000000e+00  1.0546783107650286e+00 0.0000000000000000e+00 0.0000000000000000e+00  1.0590792295575602e+00 0.0000000000000000e+00 0.0000000000000000e+00  1.0631947646871140e+00 0.0000000000000000e+00 0.0000000000000000e+00  1.0646339921421994e+00 0.0000000000000000e+00 0.0000000000000000e+00  1.0635953696529266e+00 0.0000000000000000e+00 0.0000000000000000e+00  1.0630718754854993e+00 0.0000000000000000e+00 0.0000000000000000e+00  1.0593089937652120e+00 0.0000000000000000e+00 0.0000000000000000e+00  1.0535078462737588e+00 0.0000000000000000e+00 0.0000000000000000e+00  1.0495669342078797e+00 0.0000000000000000e+00 0.0000000000000000e+00  1.0487103918174692e+00 0.0000000000000000e+00 0.0000000000000000e+00  1.0488505211050021e+00 0.0000000000000000e+00 0.0000000000000000e+00  1.0549031137055984e+00 0.0000000000000000e+00 0.0000000000000000e+00  1.0583244342474190e+00 0.0000000000000000e+00 0.0000000000000000e+00  1.0614610397573856e+00 0.0000000000000000e+00 0.0000000000000000e+00  1.0643197302863250e+00 0.0000000000000000e+00 0.0000000000000000e+00  1.0652696303903899e+00 0.0000000000000000e+00 0.0000000000000000e+00  1.0639633470068173e+00 0.0000000000000000e+00 0.0000000000000000e+00  1.0609662067433414e+00 0.0000000000000000e+00 0.0000000000000000e+00  1.0576421575060626e+00 0.0000000000000000e+00 0.0000000000000000e+00  1.0544512057723101e+00 0.0000000000000000e+00 0.0000000000000000e+00  1.0520830636309055e+00 0.0000000000000000e+00 0.0000000000000000e+00  1.0519582553506863e+00 0.0000000000000000e+00 0.0000000000000000e+00  1.0538139822428536e+00 0.0000000000000000e+00 0.0000000000000000e+00  1.0569856925757872e+00 0.0000000000000000e+00 0.0000000000000000e+00  1.0616733173814901e+00 0.0000000000000000e+00 0.0000000000000000e+00  1.0662644117317523e+00 0.0000000000000000e+00 0.0000000000000000e+00  1.0705152292841409e+00 0.0000000000000000e+00 0.0000000000000000e+00  1.0722080329613288e+00 0.0000000000000000e+00 0.0000000000000000e+00  1.0727808421114722e+00 0.0000000000000000e+00 0.0000000000000000e+00  1.0716256833662092e+00 0.0000000000000000e+00 0.0000000000000000e+00  1.0705021295276798e+00 0.0000000000000000e+00 0.0000000000000000e+00  1.0689544062776515e+00 0.0000000000000000e+00 0.0000000000000000e+00  1.0692704660841352e+00 0.0000000000000000e+00 0.0000000000000000e+00  1.0705825694657445e+00 0.0000000000000000e+00 0.0000000000000000e+00  1.0745019014520869e+00 -5.2518392090001717e-03 0.0000000000000000e+00  1.0720876799003549e+00 -1.1084780821929555e-02 0.0000000000000000e+00  1.0668080444723902e+00 -1.7853120442959256e-02 0.0000000000000000e+00  1.0547762879236116e+00 -2.5837363680356482e-02 0.0000000000000000e+00  1.0349397585466402e+00 -3.7085012557860550e-02 0.0000000000000000e+00  1.0039418320447095e+00 -5.1059311421505701e-02 0.0000000000000000e+00  9.6423081840704439e-01 -7.9469461369938696e-02 0.0000000000000000e+00  9.1670077895739077e-01 -1.1595155715101262e-01 0.0000000000000000e+00  8.5372873420945017e-01 -1.5213988143869825e-01 0.0000000000000000e+00  7.8412829157676966e-01 -1.8053192065128659e-01 0.0000000000000000e+00  7.3000799386488446e-01 -1.9715406742456337e-01 0.0000000000000000e+00  7.1669197511482763e-01 -2.0256904649899352e-01 0.0000000000000000e+00  7.6290502258470461e-01 -1.9596382818346816e-01 0.0000000000000000e+00  8.6875640612735228e-01 -1.7775175562249748e-01 0.0000000000000000e+00  1.0026341554612115e+00 -1.4083430948117229e-01 0.0000000000000000e+00  1.1134855885506381e+00 -9.4836702378163565e-02 0.0000000000000000e+00  1.1670652409073632e+00 -5.5770273189385398e-02 0.0000000000000000e+00  1.1707008002395156e+00 -2.5376216647918018e-02 0.0000000000000000e+00  1.1465250122727486e+00 -1.1035155164815428e-02 0.0000000000000000e+00  1.1208310941090278e+00 -2.4102569679623907e-03 0.0000000000000000e+00  1.1042794886076501e+00 8.2578972134811465e-04 0.0000000000000000e+00  1.0962084259792040e+00 1.5133266200589521e-03 0.0000000000000000e+00  1.0914602543918062e+00 8.6412887548076322e-04 0.0000000000000000e+00  1.0873219877349576e+00 0.0000000000000000e+00 0.0000000000000000e+00  1.0832581522068663e+00 0.0000000000000000e+00 0.0000000000000000e+00  1.0775213962737986e+00 0.0000000000000000e+00 0.0000000000000000e+00  1.0714159133458718e+00 0.0000000000000000e+00 0.0000000000000000e+00  1.0650675414911366e+00 0.0000000000000000e+00 0.0000000000000000e+00  1.0606396659253168e+00 0.0000000000000000e+00 0.0000000000000000e+00  1.0583179124741358e+00 0.0000000000000000e+00 0.0000000000000000e+00  1.0584888648790949e+00 0.0000000000000000e+00 0.0000000000000000e+00  1.0598534764639460e+00 0.0000000000000000e+00 0.0000000000000000e+00  1.0626539503154009e+00 0.0000000000000000e+00 0.0000000000000000e+00  1.0654688611569356e+00 0.0000000000000000e+00 0.0000000000000000e+00  1.0673876367286759e+00 0.0000000000000000e+00 0.0000000000000000e+00  1.0678048794652200e+00 0.0000000000000000e+00 0.0000000000000000e+00  1.0671094591653414e+00 0.0000000000000000e+00 0.0000000000000000e+00  1.0638439499553152e+00 0.0000000000000000e+00 0.0000000000000000e+00  1.0605662011531600e+00 0.0000000000000000e+00 0.0000000000000000e+00  1.0557010231880513e+00 0.0000000000000000e+00 0.0000000000000000e+00  1.0521605141849770e+00 0.0000000000000000e+00 0.0000000000000000e+00  1.0500348567427826e+00 0.0000000000000000e+00 0.0000000000000000e+00  1.0504858692650367e+00 0.0000000000000000e+00 0.0000000000000000e+00  1.0525612932155313e+00 0.0000000000000000e+00 0.0000000000000000e+00  1.0557993397257106e+00 0.0000000000000000e+00 0.0000000000000000e+00  1.0598749268644561e+00 0.0000000000000000e+00 0.0000000000000000e+00  1.0642518739062765e+00 0.0000000000000000e+00 0.0000000000000000e+00  1.0640789432806717e+00 0.0000000000000000e+00 0.0000000000000000e+00  1.0609569904415217e+00 0.0000000000000000e+00 0.0000000000000000e+00  1.0578788865315012e+00 0.0000000000000000e+00 0.0000000000000000e+00  1.0550110591059576e+00 0.0000000000000000e+00 0.0000000000000000e+00  1.0514061890899609e+00 0.0000000000000000e+00 0.0000000000000000e+00  1.0470840378476707e+00 0.0000000000000000e+00 0.0000000000000000e+00  1.0468775826144903e+00 0.0000000000000000e+00 0.0000000000000000e+00  1.0485567180534341e+00 0.0000000000000000e+00 0.0000000000000000e+00  1.0510961321152552e+00 0.0000000000000000e+00 0.0000000000000000e+00  1.0552534054392604e+00 0.0000000000000000e+00 0.0000000000000000e+00  1.0594610963999884e+00 0.0000000000000000e+00 0.0000000000000000e+00  1.0619733759427332e+00 0.0000000000000000e+00 0.0000000000000000e+00  1.0633549770157693e+00 0.0000000000000000e+00 0.0000000000000000e+00  1.0622201045098330e+00 0.0000000000000000e+00 0.0000000000000000e+00  1.0580798012026058e+00 0.0000000000000000e+00 0.0000000000000000e+00  1.0536486649827328e+00 0.0000000000000000e+00 0.0000000000000000e+00  1.0486487545480812e+00 0.0000000000000000e+00 0.0000000000000000e+00  1.0433202805529591e+00 0.0000000000000000e+00 0.0000000000000000e+00  1.0406454516182364e+00 0.0000000000000000e+00 0.0000000000000000e+00  1.0399995934872577e+00 0.0000000000000000e+00 0.0000000000000000e+00  1.0406437435660625e+00 0.0000000000000000e+00 0.0000000000000000e+00  1.0448227917834700e+00 0.0000000000000000e+00 0.0000000000000000e+00  1.0501751132201878e+00 0.0000000000000000e+00 0.0000000000000000e+00  1.0550772396234167e+00 0.0000000000000000e+00 0.0000000000000000e+00  1.0595200790951844e+00 0.0000000000000000e+00 0.0000000000000000e+00  1.0623207124560816e+00 0.0000000000000000e+00 0.0000000000000000e+00  1.0624088938724963e+00 0.0000000000000000e+00 0.0000000000000000e+00  1.0606879861313312e+00 0.0000000000000000e+00 0.0000000000000000e+00  1.0572508765735980e+00 0.0000000000000000e+00 0.0000000000000000e+00  1.0529144826487769e+00 0.0000000000000000e+00 0.0000000000000000e+00  1.0497457328831328e+00 0.0000000000000000e+00 0.0000000000000000e+00  1.0469325110732288e+00 0.0000000000000000e+00 0.0000000000000000e+00  1.0466685410639405e+00 0.0000000000000000e+00 0.0000000000000000e+00  1.0496178069248854e+00 0.0000000000000000e+00 0.0000000000000000e+00  1.0547265665045344e+00 0.0000000000000000e+00 0.0000000000000000e+00  1.0610287273371808e+00 0.0000000000000000e+00 0.0000000000000000e+00  1.0679330946883645e+00 0.0000000000000000e+00 0.0000000000000000e+00  1.0753507534066311e+00 0.0000000000000000e+00 0.0000000000000000e+00  1.0829461156915228e+00 0.0000000000000000e+00 0.0000000000000000e+00  1.0886313224721909e+00 0.0000000000000000e+00 0.0000000000000000e+00  1.0925257444822609e+00 0.0000000000000000e+00 0.0000000000000000e+00  1.0961499305133702e+00 0.0000000000000000e+00 0.0000000000000000e+00  1.0963714660292927e+00 0.0000000000000000e+00 0.0000000000000000e+00  1.0958561064128871e+00 0.0000000000000000e+00 0.0000000000000000e+00  1.0934221244576583e+00 0.0000000000000000e+00 0.0000000000000000e+00  1.0889509462576294e+00 0.0000000000000000e+00 0.0000000000000000e+00  1.0833665723133759e+00 0.0000000000000000e+00 0.0000000000000000e+00  1.0770429692773367e+00 0.0000000000000000e+00 0.0000000000000000e+00  1.0699594972888216e+00 0.0000000000000000e+00 0.0000000000000000e+00  1.0616783578549720e+00 0.0000000000000000e+00 0.0000000000000000e+00  1.0542110921163481e+00 0.0000000000000000e+00 0.0000000000000000e+00  1.0461848395799165e+00 0.0000000000000000e+00 0.0000000000000000e+00  1.0311818287388941e+00 0.0000000000000000e+00 0.0000000000000000e+00  1.0247623094818217e+00 0.0000000000000000e+00 0.0000000000000000e+00  1.0196819107878319e+00 0.0000000000000000e+00 0.0000000000000000e+00  1.0151158688151196e+00 0.0000000000000000e+00 0.0000000000000000e+00  1.0113964503304107e+00 0.0000000000000000e+00 0.0000000000000000e+00  1.0084782280277029e+00 0.0000000000000000e+00 0.0000000000000000e+00  1.0063023101761839e+00 0.0000000000000000e+00 0.0000000000000000e+00  1.0042226460073835e+00 0.0000000000000000e+00 0.0000000000000000e+00  1.0028510684138419e+00 0.0000000000000000e+00 0.0000000000000000e+00  1.0019747835166568e+00 0.0000000000000000e+00 0.0000000000000000e+00  1.0009565384249992e+00 0.0000000000000000e+00 0.0000000000000000e+00  1.0009537726220994e+00 0.0000000000000000e+00 0.0000000000000000e+00  1.0000417574409322e+00 0.0000000000000000e+00 0.0000000000000000e+00  1.0001373947358927e+00 0.0000000000000000e+00 0.0000000000000000e+00  9.9979813125470240e-01 0.0000000000000000e+00 0.0000000000000000e+00  1.0005165555942128e+00 0.0000000000000000e+00 0.0000000000000000e+00  1.0002703102207742e+00 0.0000000000000000e+00 0.0000000000000000e+00  9.9980243018571524e-01 0.0000000000000000e+00 0.0000000000000000e+00  1.0000001298993504e+00 0.0000000000000000e+00 0.0000000000000000e+00  1.0000001298993504e+00 0.0000000000000000e+00 0.0000000000000000e+00  1.0000001298993504e+00 0.0000000000000000e+00 0.0000000000000000e+00  1.0000001298993504e+00 0.0000000000000000e+00 0.0000000000000000e+00  1.0000001298993504e+00 0.0000000000000000e+00 0.0000000000000000e+00  1.0000001298993504e+00 0.0000000000000000e+00 0.0000000000000000e+00  1.0000001298993504e+00 0.0000000000000000e+00 0.0000000000000000e+00  1.0000001298993504e+00 0.0000000000000000e+00 0.0000000000000000e+00  1.0000001298993504e+00 0.0000000000000000e+00 0.0000000000000000e+00  1.0000001298993504e+00 0.0000000000000000e+00 0.0000000000000000e+00  1.0000001298993504e+00 0.0000000000000000e+00 0.0000000000000000e+00  1.0000001298993504e+00 0.0000000000000000e+00 0.0000000000000000e+00  1.0000001298993504e+00 0.0000000000000000e+00 0.0000000000000000e+00  1.0000001298993504e+00 0.0000000000000000e+00 0.0000000000000000e+00  1.0000001298993504e+00 0.0000000000000000e+00 0.0000000000000000e+00  1.0000001298993504e+00 0.0000000000000000e+00 0.0000000000000000e+00  1.0000001298993504e+00 0.0000000000000000e+00 0.0000000000000000e+00  1.0000001298993504e+00 0.0000000000000000e+00 0.0000000000000000e+00  1.0000001298993504e+00 0.0000000000000000e+00 0.0000000000000000e+00  1.0000001298993504e+00 0.0000000000000000e+00 0.0000000000000000e+00  1.0417407586259790e+00 -9.4648821634723788e-03 0.0000000000000000e+00  1.0388821653065203e+00 -1.9155903141747716e-02 0.0000000000000000e+00  1.0368503001466418e+00 -2.9692055309320363e-02 0.0000000000000000e+00  1.0313282864662834e+00 -4.0887149683360380e-02 0.0000000000000000e+00  1.0257462311709735e+00 -5.6268178834168917e-02 0.0000000000000000e+00  1.0303434176020274e+00 -5.9659923337353579e-02 0.0000000000000000e+00  1.0345843748942785e+00 -6.3096014934916511e-02 0.0000000000000000e+00  1.0398530379578372e+00 -6.6203751574951231e-02 0.0000000000000000e+00  1.0454074841055909e+00 -6.9120074123676489e-02 0.0000000000000000e+00  1.0516006902680683e+00 -7.1581657483257385e-02 0.0000000000000000e+00  1.0583799702837240e+00 -7.3629175558454066e-02 0.0000000000000000e+00  1.0656182273758827e+00 -7.4956351864978954e-02 0.0000000000000000e+00  1.0733602551479362e+00 -7.5668134943257651e-02 0.0000000000000000e+00  1.0812303341082510e+00 -7.5418371937734943e-02 0.0000000000000000e+00  1.0894073189012519e+00 -7.4426023905881322e-02 0.0000000000000000e+00  1.0976042624727282e+00 -7.2555680698084629e-02 0.0000000000000000e+00  1.1058361558448546e+00 -6.9513548262535960e-02 0.0000000000000000e+00  1.1136423554732979e+00 -6.5421247944777564e-02 0.0000000000000000e+00  1.1210825518654288e+00 -6.0488017990209524e-02 0.0000000000000000e+00  1.1279829496624685e+00 -5.4612246308040881e-02 0.0000000000000000e+00  1.1340817590986794e+00 -4.7824647875447171e-02 0.0000000000000000e+00  1.1393776717666804e+00 -4.0304205564267406e-02 0.0000000000000000e+00  1.1436843767501026e+00 -3.2172096976286924e-02 0.0000000000000000e+00  1.1469847550907866e+00 -2.3340952412068915e-02 0.0000000000000000e+00  1.1491671515812267e+00 -1.4334274274257302e-02 0.0000000000000000e+00  1.1501904297320742e+00 -4.8952765239470824e-03 0.0000000000000000e+00  1.1498160637147365e+00 4.7297098295804741e-03 0.0000000000000000e+00  1.1483479372728773e+00 1.4208772565445386e-02 0.0000000000000000e+00  1.1454195128750035e+00 2.3410967212132192e-02 0.0000000000000000e+00  1.1412570414482059e+00 3.2228553525574709e-02 0.0000000000000000e+00  1.1358024305696375e+00 4.0436397479861420e-02 0.0000000000000000e+00  1.1291336594926134e+00 4.7692821865484465e-02 0.0000000000000000e+00  1.1214121716774077e+00 5.4051367330487606e-02 0.0000000000000000e+00  1.1127140453526028e+00 5.9310535310388220e-02 0.0000000000000000e+00  1.1033356083374588e+00 6.3140074310982203e-02 0.0000000000000000e+00  1.0933901926666247e+00 6.553995