<?xml version="1.0"?>
<VTKFile type="UnstructuredGrid"  version="0.1"  >
<UnstructuredGrid>
<Piece  NumberOfPoints="10199" NumberOfCells="20110">
<Points>
<DataArray  type="Float64"  NumberOfComponents="3"  format="ascii">0 -5 0  8 -5 0  30 -5 0  40 -5 0  40 5 0  30 5 0  8 5 0  0 5 0  8 -2.5 0  15 -2.5 0  30 -2.5 0  30 2.5 0  15 2.5 0  8 2.5 0  10 0.5 0  10 -0.5 0  0 0 0  0.4210526315780956 -5 0  0.8421052631563433 -5 0  1.263157894734281 -5 0  1.684210526311999 -5 0  2.105263157889717 -5 0  2.526315789467435 -5 0  2.947368421045153 -5 0  3.368421052622872 -5 0  3.78947368420059 -5 0  4.210526315779479 -5 0  4.631578947359537 -5 0  5.052631578939595 -5 0  5.473684210519653 -5 0  5.89473684209971 -5 0  6.315789473679768 -5 0  6.736842105259826 -5 0  7.157894736839884 -5 0  7.578947368419942 -5 0  8.407407407405314 -5 0  8.814814814810628 -5 0  9.222222222215942 -5 0  9.629629629621256 -5 0  10.03703703702657 -5 0  10.44444444443188 -5 0  10.8518518518372 -5 0  11.25925925924251 -5 0  11.66666666664783 -5 0  12.07407407405314 -5 0  12.48148148145846 -5 0  12.88888888886377 -5 0  13.29629629626908 -5 0  13.7037037036744 -5 0  14.11111111107971 -5 0  14.51851851848502 -5 0  14.92592592589034 -5 0  15.33333333329565 -5 0  15.74074074070096 -5 0  16.14814814810754 -5 0  16.55555555551614 -5 0  16.96296296292474 -5 0  17.37037037033335 -5 0  17.77777777774195 -5 0  18.18518518515056 -5 0  18.59259259255916 -5 0  18.99999999996776 -5 0  19.40740740737636 -5 0  19.81481481478497 -5 0  20.22222222219357 -5 0  20.62962962960217 -5 0  21.03703703701077 -5 0  21.44444444441937 -5 0  21.85185185182797 -5 0  22.25925925923657 -5 0  22.66666666664518 -5 0  23.07407407405378 -5 0  23.48148148146238 -5 0  23.88888888887098 -5 0  24.29629629627958 -5 0  24.70370370368818 -5 0  25.11111111109678 -5 0  25.51851851850539 -5 0  25.92592592591399 -5 0  26.33333333332259 -5 0  26.74074074073119 -5 0  27.14814814813979 -5 0  27.55555555554839 -5 0  27.96296296295699 -5 0  28.3703703703656 -5 0  28.7777777777742 -5 0  29.1851851851828 -5 0  29.5925925925914 -5 0  30.41666666667852 -5 0  30.83333333335704 -5 0  31.25000000003556 -5 0  31.66666666671408 -5 0  32.08333333338936 -5 0  32.50000000005308 -5 0  32.9166666667168 -5 0  33.33333333338052 -5 0  33.75000000004424 -5 0  34.16666666670795 -5 0  34.58333333337167 -5 0  35.00000000003539 -5 0  35.41666666669911 -5 0  35.83333333336282 -5 0  36.25000000002654 -5 0  36.66666666669026 -5 0  37.08333333335398 -5 0  37.50000000001769 -5 0  37.91666666668141 -5 0  38.33333333334513 -5 0  38.75000000000885 -5 0  39.16666666667257 -5 0  39.58333333333628 -5 0  40 -4.583333333332821 0  40 -4.166666666665642 0  40 -3.74999999999855 0  40 -3.333333333333135 0  40 -2.916666666667806 0  40 -2.500000000002478 0  40 -2.083333333337148 0  40 -1.666666666671818 0  40 -1.250000000006488 0  40 -0.8333333333405228 0  40 -0.4166666666733416 0  40 -6.163070054299169e-12 0  40 0.4166666666610173 0  40 0.8333333333281976 0  40 1.249999999995378 0  40 1.666666666662558 0  40 2.083333333329739 0  40 2.499999999996919 0  40 2.916666666664099 0  40 3.33333333333128 0  40 3.74999999999846 0  40 4.166666666665641 0  40 4.583333333332821 0  39.58333333333628 5 0  39.16666666667256 5 0  38.75000000000885 5 0  38.33333333334513 5 0  37.91666666668141 5 0  37.50000000001769 5 0  37.08333333335398 5 0  36.66666666669025 5 0  36.25000000002654 5 0  35.83333333336282 5 0  35.41666666669911 5 0  35.00000000003539 5 0  34.58333333337167 5 0  34.16666666670795 5 0  33.75000000004424 5 0  33.33333333338052 5 0  32.9166666667168 5 0  32.50000000005308 5 0  32.08333333338936 5 0  31.66666666671408 5 0  31.25000000003556 5 0  30.83333333335704 5 0  30.41666666667852 5 0  29.59259259259259 5 0  29.18518518518519 5 0  28.77777777777778 5 0  28.37037037037037 5 0  27.96296296296296 5 0  27.55555555555556 5 0  27.14814814814815 5 0  26.74074074074074 5 0  26.33333333333333 5 0  25.92592592592593 5 0  25.51851851851852 5 0  25.11111111111111 5 0  24.7037037037037 5 0  24.2962962962963 5 0  23.88888888888889 5 0  23.48148148148148 5 0  23.07407407407408 5 0  22.66666666666667 5 0  22.25925925925926 5 0  21.85185185185185 5 0  21.44444444444445 5 0  21.03703703703704 5 0  20.62962962962963 5 0  20.22222222222222 5 0  19.81481481481482 5 0  19.40740740740741 5 0  19 5 0  18.5925925925926 5 0  18.18518518518519 5 0  17.77777777777778 5 0  17.37037037037037 5 0  16.96296296296296 5 0  16.55555555555556 5 0  16.14814814814815 5 0  15.74074074074074 5 0  15.33333333333333 5 0  14.92592592592593 5 0  14.51851851851852 5 0  14.11111111111111 5 0  13.70370370370371 5 0  13.2962962962963 5 0  12.88888888888889 5 0  12.48148148148148 5 0  12.07407407407408 5 0  11.66666666666667 5 0  11.25925925925926 5 0  10.85185185185185 5 0  10.44444444444445 5 0  10.03703703703704 5 0  9.629629629629633 5 0  9.222222222222221 5 0  8.814814814814817 5 0  8.407407407407408 5 0  7.5789473684193 5 0  7.157894736838599 5 0  6.73684210526082 5 0  6.315789473684795 5 0  5.894736842108769 5 0  5.473684210532742 5 0  5.052631578956715 5 0  4.631578947380689 5 0  4.210526315804662 5 0  3.789473684226299 5 0  3.368421052645599 5 0  2.947368421064898 5 0  2.526315789484198 5 0  2.105263157903499 5 0  1.6842105263228 5 0  1.2631578947421 5 0  0.8421052631613994 5 0  0.4210526315806993 5 0  0 4.545454545454545 0  0 4.09090909090909 0  0 3.636363636363634 0  0 3.18181818181818 0  0 2.727272727272726 0  0 2.272727272727271 0  0 1.818181818181817 0  0 1.363636363636363 0  0 0.9090909090909092 0  0 0.454545454545455 0  0 -0.4545454545450807 0  0 -0.9090909090895867 0  0 -1.363636363633713 0  0 -1.818181818177841 0  0 -2.272727272723127 0  0 -2.727272727269273 0  0 -3.181818181815419 0  0 -3.636363636361564 0  0 -4.090909090907709 0  0 -4.545454545453855 0  8 -4.499999999999999 0  8 -3.999999999999999 0  8 -3.499999999999999 0  8 -3 0  8.137254901963859 -2.5 0  8.274509803926303 -2.5 0  8.411764705886863 -2.5 0  8.549019607849138 -2.5 0  8.686274509809513 -2.5 0  8.82352941176989 -2.5 0  8.960784313730265 -2.5 0  9.098039215690642 -2.5 0  9.235294117651017 -2.5 0  9.372549019611395 -2.5 0  9.50980392157177 -2.5 0  9.647058823532147 -2.5 0  9.784313725492522 -2.5 0  9.921568627452897 -2.5 0  10.05882352941327 -2.5 0  10.19607843137365 -2.5 0  10.33333333333402 -2.5 0  10.4705882352944 -2.5 0  10.60784313725478 -2.5 0  10.74509803921515 -2.5 0  10.88235294117553 -2.5 0  11.0196078431359 -2.5 0  11.15686274509628 -2.5 0  11.29411764705665 -2.5 0  11.43137254901703 -2.5 0  11.56862745097915 -2.5 0  11.70588235294301 -2.5 0  11.84313725490686 -2.5 0  11.98039215687072 -2.5 0  12.11764705883209 -2.5 0  12.25490196079247 -2.5 0  12.39215686275285 -2.5 0  12.52941176471322 -2.5 0  12.6666666666736 -2.5 0  12.80392156863397 -2.5 0  12.94117647059435 -2.5 0  13.07843137255473 -2.5 0  13.2156862745151 -2.5 0  13.35294117647548 -2.5 0  13.49019607843586 -2.5 0  13.62745098039623 -2.5 0  13.76470588235661 -2.5 0  13.90196078431699 -2.5 0  14.03921568627736 -2.5 0  14.17647058823774 -2.5 0  14.31372549019812 -2.5 0  14.45098039215849 -2.5 0  14.58823529411887 -2.5 0  14.72549019607925 -2.5 0  14.86274509803962 -2.5 0  15.20270270270254 -2.5 0  15.40540540540509 -2.5 0  15.60810810810763 -2.5 0  15.81081081081017 -2.5 0  16.01351351351227 -2.5 0  16.21621621621265 -2.5 0  16.41891891891279 -2.5 0  16.62162162161294 -2.5 0  16.82432432431308 -2.5 0  17.02702702701322 -2.5 0  17.22972972971337 -2.5 0  17.43243243241351 -2.5 0  17.63513513511365 -2.5 0  17.83783783781379 -2.5 0  18.04054054051394 -2.5 0  18.24324324321408 -2.5 0  18.44594594591422 -2.5 0  18.64864864861436 -2.5 0  18.85135135131451 -2.5 0  19.05405405401465 -2.5 0  19.25675675671479 -2.5 0  19.45945945941494 -2.5 0  19.66216216211508 -2.5 0  19.86486486481522 -2.5 0  20.06756756751536 -2.5 0  20.27027027021551 -2.5 0  20.47297297291565 -2.5 0  20.6756756756158 -2.5 0  20.87837837831594 -2.5 0  21.08108108101608 -2.5 0  21.28378378371622 -2.5 0  21.48648648641637 -2.5 0  21.68918918911651 -2.5 0  21.89189189181666 -2.5 0  22.0945945945168 -2.5 0  22.29729729721694 -2.5 0  22.49999999991778 -2.5 0  22.70270270262203 -2.5 0  22.90540540532697 -2.5 0  23.10810810803191 -2.5 0  23.31081081073686 -2.5 0  23.5135135134418 -2.5 0  23.71621621614674 -2.5 0  23.91891891885169 -2.5 0  24.12162162155663 -2.5 0  24.32432432426158 -2.5 0  24.52702702696652 -2.5 0  24.72972972967146 -2.5 0  24.93243243237641 -2.5 0  25.13513513508135 -2.5 0  25.3378378377863 -2.5 0  25.54054054049124 -2.5 0  25.74324324319618 -2.5 0  25.94594594590112 -2.5 0  26.14864864860607 -2.5 0  26.35135135131101 -2.5 0  26.55405405401596 -2.5 0  26.7567567567209 -2.5 0  26.95945945942584 -2.5 0  27.16216216213079 -2.5 0  27.36486486483573 -2.5 0  27.56756756754068 -2.5 0  27.77027027024562 -2.5 0  27.97297297295056 -2.5 0  28.1756756756555 -2.5 0  28.37837837836045 -2.5 0  28.5810810810654 -2.5 0  28.78378378377034 -2.5 0  28.98648648647528 -2.5 0  29.18918918918023 -2.5 0  29.39189189188517 -2.5 0  29.59459459459011 -2.5 0  29.79729729729506 -2.5 0  30 -3.000000000000001 0  30 -3.500000000000001 0  30 -4.000000000000001 0  30 -4.5 0  8 4.499999999999999 0  8 3.999999999999999 0  8 3.499999999999999 0  8 3 0  8.137254901963859 2.5 0  8.274509803926303 2.5 0  8.411764705886863 2.5 0  8.549019607849138 2.5 0  8.686274509809513 2.5 0  8.82352941176989 2.5 0  8.960784313730265 2.5 0  9.098039215690642 2.5 0  9.235294117651017 2.5 0  9.372549019611395 2.5 0  9.50980392157177 2.5 0  9.647058823532147 2.5 0  9.784313725492522 2.5 0  9.921568627452897 2.5 0  10.05882352941327 2.5 0  10.19607843137365 2.5 0  10.33333333333402 2.5 0  10.4705882352944 2.5 0  10.60784313725478 2.5 0  10.74509803921515 2.5 0  10.88235294117553 2.5 0  11.0196078431359 2.5 0  11.15686274509628 2.5 0  11.29411764705665 2.5 0  11.43137254901703 2.5 0  11.56862745097915 2.5 0  11.70588235294301 2.5 0  11.84313725490686 2.5 0  11.98039215687072 2.5 0  12.11764705883209 2.5 0  12.25490196079247 2.5 0  1
[...]
<PointData  Vectors="f_17"> 
<DataArray  type="Float64"  Name="f_17"  NumberOfComponents="3" format="ascii">1.0000001315513529e+00 0.0000000000000000e+00 0.0000000000000000e+00  1.0414673363539402e+00 0.0000000000000000e+00 0.0000000000000000e+00  1.0637517799661260e+00 0.0000000000000000e+00 0.0000000000000000e+00  1.0934764696645554e+00 0.0000000000000000e+00 0.0000000000000000e+00  1.0742444104469966e+00 0.0000000000000000e+00 0.0000000000000000e+00  1.0504196353610653e+00 0.0000000000000000e+00 0.0000000000000000e+00  1.0394551592598358e+00 0.0000000000000000e+00 0.0000000000000000e+00  1.0000001315513529e+00 0.0000000000000000e+00 0.0000000000000000e+00  1.0249733611081195e+00 -5.0640404936863712e-02 0.0000000000000000e+00  1.1147532122288364e+00 6.9950601927744979e-02 0.0000000000000000e+00  1.1539903243538689e+00 -3.7585143622126622e-02 0.0000000000000000e+00  9.9191802989813660e-01 -3.4034180154141780e-02 0.0000000000000000e+00  9.9260151422701370e-01 1.5884524954772973e-02 0.0000000000000000e+00  1.0178515992260204e+00 5.1040408547373232e-02 0.0000000000000000e+00  0.0000000000000000e+00 0.0000000000000000e+00 0.0000000000000000e+00  0.0000000000000000e+00 0.0000000000000000e+00 0.0000000000000000e+00  1.0000001315513529e+00 0.0000000000000000e+00 0.0000000000000000e+00  9.9931277464125678e-01 0.0000000000000000e+00 0.0000000000000000e+00  9.9882818793516315e-01 0.0000000000000000e+00 0.0000000000000000e+00  1.0009636573119896e+00 0.0000000000000000e+00 0.0000000000000000e+00  1.0008974057083768e+00 0.0000000000000000e+00 0.0000000000000000e+00  1.0019941545158000e+00 0.0000000000000000e+00 0.0000000000000000e+00  1.0024286900223582e+00 0.0000000000000000e+00 0.0000000000000000e+00  1.0028102979447031e+00 0.0000000000000000e+00 0.0000000000000000e+00  1.0036791378219805e+00 0.0000000000000000e+00 0.0000000000000000e+00  1.0049289327158564e+00 0.0000000000000000e+00 0.0000000000000000e+00  1.0060303116418696e+00 0.0000000000000000e+00 0.0000000000000000e+00  1.0074824783130072e+00 0.0000000000000000e+00 0.0000000000000000e+00  1.0096525440709943e+00 0.0000000000000000e+00 0.0000000000000000e+00  1.0119549432432913e+00 0.0000000000000000e+00 0.0000000000000000e+00  1.0158475869633072e+00 0.0000000000000000e+00 0.0000000000000000e+00  1.0175161325536994e+00 0.0000000000000000e+00 0.0000000000000000e+00  1.0219953616201110e+00 0.0000000000000000e+00 0.0000000000000000e+00  1.0286137160636306e+00 0.0000000000000000e+00 0.0000000000000000e+00  1.0338515340935908e+00 0.0000000000000000e+00 0.0000000000000000e+00  1.0489893791356930e+00 0.0000000000000000e+00 0.0000000000000000e+00  1.0567733520305687e+00 0.0000000000000000e+00 0.0000000000000000e+00  1.0637601633881273e+00 0.0000000000000000e+00 0.0000000000000000e+00  1.0709361913217228e+00 0.0000000000000000e+00 0.0000000000000000e+00  1.0764536364524975e+00 0.0000000000000000e+00 0.0000000000000000e+00  1.0811032461169625e+00 0.0000000000000000e+00 0.0000000000000000e+00  1.0853334957854608e+00 0.0000000000000000e+00 0.0000000000000000e+00  1.0872122129356840e+00 0.0000000000000000e+00 0.0000000000000000e+00  1.0886225120233191e+00 0.0000000000000000e+00 0.0000000000000000e+00  1.0890321128668767e+00 0.0000000000000000e+00 0.0000000000000000e+00  1.0893001420985147e+00 0.0000000000000000e+00 0.0000000000000000e+00  1.0881116939410886e+00 0.0000000000000000e+00 0.0000000000000000e+00  1.0873550230213893e+00 0.0000000000000000e+00 0.0000000000000000e+00  1.0855994544114620e+00 0.0000000000000000e+00 0.0000000000000000e+00  1.0824923800619264e+00 0.0000000000000000e+00 0.0000000000000000e+00  1.0783986695663481e+00 0.0000000000000000e+00 0.0000000000000000e+00  1.0728332491531183e+00 0.0000000000000000e+00 0.0000000000000000e+00  1.0662899697981307e+00 0.0000000000000000e+00 0.0000000000000000e+00  1.0588927643808359e+00 0.0000000000000000e+00 0.0000000000000000e+00  1.0515664620087573e+00 0.0000000000000000e+00 0.0000000000000000e+00  1.0463962400013704e+00 0.0000000000000000e+00 0.0000000000000000e+00  1.0435572211482103e+00 0.0000000000000000e+00 0.0000000000000000e+00  1.0418102245081176e+00 0.0000000000000000e+00 0.0000000000000000e+00  1.0433887665693873e+00 0.0000000000000000e+00 0.0000000000000000e+00  1.0468820013027913e+00 0.0000000000000000e+00 0.0000000000000000e+00  1.0515260314103072e+00 0.0000000000000000e+00 0.0000000000000000e+00  1.0568164174323296e+00 0.0000000000000000e+00 0.0000000000000000e+00  1.0606356334282818e+00 0.0000000000000000e+00 0.0000000000000000e+00  1.0625736220366095e+00 0.0000000000000000e+00 0.0000000000000000e+00  1.0625042980823558e+00 0.0000000000000000e+00 0.0000000000000000e+00  1.0593089952429804e+00 0.0000000000000000e+00 0.0000000000000000e+00  1.0544494778355580e+00 0.0000000000000000e+00 0.0000000000000000e+00  1.0504008258651398e+00 0.0000000000000000e+00 0.0000000000000000e+00  1.0458265156166178e+00 0.0000000000000000e+00 0.0000000000000000e+00  1.0425081219415897e+00 0.0000000000000000e+00 0.0000000000000000e+00  1.0423052922501725e+00 0.0000000000000000e+00 0.0000000000000000e+00  1.0434402778518528e+00 0.0000000000000000e+00 0.0000000000000000e+00  1.0463760588368778e+00 0.0000000000000000e+00 0.0000000000000000e+00  1.0521336070892431e+00 0.0000000000000000e+00 0.0000000000000000e+00  1.0571348105165539e+00 0.0000000000000000e+00 0.0000000000000000e+00  1.0611348241498924e+00 0.0000000000000000e+00 0.0000000000000000e+00  1.0641777243529256e+00 0.0000000000000000e+00 0.0000000000000000e+00  1.0642755249558244e+00 0.0000000000000000e+00 0.0000000000000000e+00  1.0621817678189660e+00 0.0000000000000000e+00 0.0000000000000000e+00  1.0591555061905868e+00 0.0000000000000000e+00 0.0000000000000000e+00  1.0546529175022217e+00 0.0000000000000000e+00 0.0000000000000000e+00  1.0503588939135899e+00 0.0000000000000000e+00 0.0000000000000000e+00  1.0498402349490241e+00 0.0000000000000000e+00 0.0000000000000000e+00  1.0491643894075038e+00 0.0000000000000000e+00 0.0000000000000000e+00  1.0488070854455687e+00 0.0000000000000000e+00 0.0000000000000000e+00  1.0512434223104659e+00 0.0000000000000000e+00 0.0000000000000000e+00  1.0561159221585739e+00 0.0000000000000000e+00 0.0000000000000000e+00  1.0602619337921597e+00 0.0000000000000000e+00 0.0000000000000000e+00  1.0653902388212322e+00 0.0000000000000000e+00 0.0000000000000000e+00  1.0641783336461510e+00 0.0000000000000000e+00 0.0000000000000000e+00  1.0610673564728306e+00 0.0000000000000000e+00 0.0000000000000000e+00  1.0578334594615189e+00 0.0000000000000000e+00 0.0000000000000000e+00  1.0543092592043057e+00 0.0000000000000000e+00 0.0000000000000000e+00  1.0513538245299590e+00 0.0000000000000000e+00 0.0000000000000000e+00  1.0500815368208019e+00 0.0000000000000000e+00 0.0000000000000000e+00  1.0511485594396217e+00 0.0000000000000000e+00 0.0000000000000000e+00  1.0540631770387854e+00 0.0000000000000000e+00 0.0000000000000000e+00  1.0577212121632082e+00 0.0000000000000000e+00 0.0000000000000000e+00  1.0622683283023038e+00 0.0000000000000000e+00 0.0000000000000000e+00  1.0658911172122201e+00 0.0000000000000000e+00 0.0000000000000000e+00  1.0678643005356692e+00 0.0000000000000000e+00 0.0000000000000000e+00  1.0686006580247325e+00 0.0000000000000000e+00 0.0000000000000000e+00  1.0675751493219450e+00 0.0000000000000000e+00 0.0000000000000000e+00  1.0659471842285142e+00 0.0000000000000000e+00 0.0000000000000000e+00  1.0632475728481967e+00 0.0000000000000000e+00 0.0000000000000000e+00  1.0618583019590921e+00 0.0000000000000000e+00 0.0000000000000000e+00  1.0619320079175132e+00 0.0000000000000000e+00 0.0000000000000000e+00  1.0649123528504101e+00 0.0000000000000000e+00 0.0000000000000000e+00  1.0697950936984799e+00 0.0000000000000000e+00 0.0000000000000000e+00  1.0774432854636498e+00 0.0000000000000000e+00 0.0000000000000000e+00  1.0851763072041591e+00 0.0000000000000000e+00 0.0000000000000000e+00  1.0949941323894750e+00 -7.6695505368425754e-03 0.0000000000000000e+00  1.0989410462158382e+00 -1.6953477591630836e-02 0.0000000000000000e+00  1.1063092758017459e+00 -2.9695157067248609e-02 0.0000000000000000e+00  1.1176923775223704e+00 -4.8979527686766569e-02 0.0000000000000000e+00  1.1376173095874069e+00 -8.0267794185812383e-02 0.0000000000000000e+00  1.1552868406375647e+00 -1.2302629936070857e-01 0.0000000000000000e+00  1.1455786486953736e+00 -1.7441833297139317e-01 0.0000000000000000e+00  1.0829821227994025e+00 -2.1730777039864688e-01 0.0000000000000000e+00  9.6750222156915666e-01 -2.3382395191566233e-01 0.0000000000000000e+00  8.4053340299605528e-01 -2.1759169912774642e-01 0.0000000000000000e+00  7.4906496038588366e-01 -1.9050775996830732e-01 0.0000000000000000e+00  7.1963077911897255e-01 -1.6732538960192339e-01 0.0000000000000000e+00  7.4248196732954264e-01 -1.5317490636482378e-01 0.0000000000000000e+00  8.0052839417219268e-01 -1.3755552548208674e-01 0.0000000000000000e+00  8.7219814687984742e-01 -1.1970935137056020e-01 0.0000000000000000e+00  9.4054528270031279e-01 -9.1364465388590999e-02 0.0000000000000000e+00  9.9206965086892129e-01 -6.3917273444659237e-02 0.0000000000000000e+00  1.0273157289968797e+00 -3.9971880671179245e-02 0.0000000000000000e+00  1.0490229435300586e+00 -2.2452932125522355e-02 0.0000000000000000e+00  1.0626567515731040e+00 -1.1857777673985600e-02 0.0000000000000000e+00  1.0695806529109679e+00 -5.7390242765065448e-03 0.0000000000000000e+00  1.0734311250025439e+00 -2.5341708673558873e-03 0.0000000000000000e+00  1.0744367302721531e+00 -9.2439625540162679e-04 0.0000000000000000e+00  1.0752910741453079e+00 0.0000000000000000e+00 0.0000000000000000e+00  1.0769363443923035e+00 0.0000000000000000e+00 0.0000000000000000e+00  1.0781804464463951e+00 0.0000000000000000e+00 0.0000000000000000e+00  1.0784776491903638e+00 0.0000000000000000e+00 0.0000000000000000e+00  1.0764194883579521e+00 0.0000000000000000e+00 0.0000000000000000e+00  1.0730746465301897e+00 0.0000000000000000e+00 0.0000000000000000e+00  1.0686227372756230e+00 0.0000000000000000e+00 0.0000000000000000e+00  1.0637735203399563e+00 0.0000000000000000e+00 0.0000000000000000e+00  1.0588778834361305e+00 0.0000000000000000e+00 0.0000000000000000e+00  1.0556802052428245e+00 0.0000000000000000e+00 0.0000000000000000e+00  1.0545438679912198e+00 0.0000000000000000e+00 0.0000000000000000e+00  1.0552476078047841e+00 0.0000000000000000e+00 0.0000000000000000e+00  1.0577446597685103e+00 0.0000000000000000e+00 0.0000000000000000e+00  1.0616042133814994e+00 0.0000000000000000e+00 0.0000000000000000e+00  1.0645154655429283e+00 0.0000000000000000e+00 0.0000000000000000e+00  1.0671045974483822e+00 0.0000000000000000e+00 0.0000000000000000e+00  1.0666323828995457e+00 0.0000000000000000e+00 0.0000000000000000e+00  1.0647689307191928e+00 0.0000000000000000e+00 0.0000000000000000e+00  1.0611293432323887e+00 0.0000000000000000e+00 0.0000000000000000e+00  1.0572376717108110e+00 0.0000000000000000e+00 0.0000000000000000e+00  1.0534056937420460e+00 0.0000000000000000e+00 0.0000000000000000e+00  1.0501775385907310e+00 0.0000000000000000e+00 0.0000000000000000e+00  1.0493898508263750e+00 0.0000000000000000e+00 0.0000000000000000e+00  1.0523771237982376e+00 0.0000000000000000e+00 0.0000000000000000e+00  1.0562984934143194e+00 0.0000000000000000e+00 0.0000000000000000e+00  1.0591762738098658e+00 0.0000000000000000e+00 0.0000000000000000e+00  1.0627412851039952e+00 0.0000000000000000e+00 0.0000000000000000e+00  1.0654694012756587e+00 0.0000000000000000e+00 0.0000000000000000e+00  1.0648097812992823e+00 0.0000000000000000e+00 0.0000000000000000e+00  1.0602780167297727e+00 0.0000000000000000e+00 0.0000000000000000e+00  1.0567521840895964e+00 0.0000000000000000e+00 0.0000000000000000e+00  1.0526229457020169e+00 0.0000000000000000e+00 0.0000000000000000e+00  1.0482688024036997e+00 0.0000000000000000e+00 0.0000000000000000e+00  1.0460578170416877e+00 0.0000000000000000e+00 0.0000000000000000e+00  1.0458316230956974e+00 0.0000000000000000e+00 0.0000000000000000e+00  1.0469438840907377e+00 0.0000000000000000e+00 0.0000000000000000e+00  1.0504704163254510e+00 0.0000000000000000e+00 0.0000000000000000e+00  1.0548177342919693e+00 0.0000000000000000e+00 0.0000000000000000e+00  1.0581468149077005e+00 0.0000000000000000e+00 0.0000000000000000e+00  1.0614897493034827e+00 0.0000000000000000e+00 0.0000000000000000e+00  1.0626706519361586e+00 0.0000000000000000e+00 0.0000000000000000e+00  1.0605728610756300e+00 0.0000000000000000e+00 0.0000000000000000e+00  1.0571760928080576e+00 0.0000000000000000e+00 0.0000000000000000e+00  1.0521458538109645e+00 0.0000000000000000e+00 0.0000000000000000e+00  1.0456353794253872e+00 0.0000000000000000e+00 0.0000000000000000e+00  1.0415070713510077e+00 0.0000000000000000e+00 0.0000000000000000e+00  1.0389759233861326e+00 0.0000000000000000e+00 0.0000000000000000e+00  1.0380331793157302e+00 0.0000000000000000e+00 0.0000000000000000e+00  1.0400115317166119e+00 0.0000000000000000e+00 0.0000000000000000e+00  1.0441346669502607e+00 0.0000000000000000e+00 0.0000000000000000e+00  1.0492847934404890e+00 0.0000000000000000e+00 0.0000000000000000e+00  1.0552269043142504e+00 0.0000000000000000e+00 0.0000000000000000e+00  1.0605619620040379e+00 0.0000000000000000e+00 0.0000000000000000e+00  1.0641162197865333e+00 0.0000000000000000e+00 0.0000000000000000e+00  1.0664170122944148e+00 0.0000000000000000e+00 0.0000000000000000e+00  1.0656112070968706e+00 0.0000000000000000e+00 0.0000000000000000e+00  1.0636733100624534e+00 0.0000000000000000e+00 0.0000000000000000e+00  1.0620596032460794e+00 0.0000000000000000e+00 0.0000000000000000e+00  1.0607091914865376e+00 0.0000000000000000e+00 0.0000000000000000e+00  1.0602043387540743e+00 0.0000000000000000e+00 0.0000000000000000e+00  1.0612178113220212e+00 0.0000000000000000e+00 0.0000000000000000e+00  1.0645958535110693e+00 0.0000000000000000e+00 0.0000000000000000e+00  1.0704428361063705e+00 0.0000000000000000e+00 0.0000000000000000e+00  1.0766220153347459e+00 0.0000000000000000e+00 0.0000000000000000e+00  1.0827512274731816e+00 0.0000000000000000e+00 0.0000000000000000e+00  1.0896860220839357e+00 0.0000000000000000e+00 0.0000000000000000e+00  1.0934417895012092e+00 0.0000000000000000e+00 0.0000000000000000e+00  1.0960638506035489e+00 0.0000000000000000e+00 0.0000000000000000e+00  1.0959431893603562e+00 0.0000000000000000e+00 0.0000000000000000e+00  1.0928987245593909e+00 0.0000000000000000e+00 0.0000000000000000e+00  1.0878156704802022e+00 0.0000000000000000e+00 0.0000000000000000e+00  1.0813155004879373e+00 0.0000000000000000e+00 0.0000000000000000e+00  1.0736624994143145e+00 0.0000000000000000e+00 0.0000000000000000e+00  1.0645585903917654e+00 0.0000000000000000e+00 0.0000000000000000e+00  1.0563314209472976e+00 0.0000000000000000e+00 0.0000000000000000e+00  1.0476245717553121e+00 0.0000000000000000e+00 0.0000000000000000e+00  1.0316772107028713e+00 0.0000000000000000e+00 0.0000000000000000e+00  1.0250435832551636e+00 0.0000000000000000e+00 0.0000000000000000e+00  1.0198490069811095e+00 0.0000000000000000e+00 0.0000000000000000e+00  1.0152398693799976e+00 0.0000000000000000e+00 0.0000000000000000e+00  1.0114727280067883e+00 0.0000000000000000e+00 0.0000000000000000e+00  1.0085152499985530e+00 0.0000000000000000e+00 0.0000000000000000e+00  1.0062736558693819e+00 0.0000000000000000e+00 0.0000000000000000e+00  1.0040894968692604e+00 0.0000000000000000e+00 0.0000000000000000e+00  1.0026181062567912e+00 0.0000000000000000e+00 0.0000000000000000e+00  1.0016060730184910e+00 0.0000000000000000e+00 0.0000000000000000e+00  1.0004930190441408e+00 0.0000000000000000e+00 0.0000000000000000e+00  1.0004459667399430e+00 0.0000000000000000e+00 0.0000000000000000e+00  9.9953819698712454e-01 0.0000000000000000e+00 0.0000000000000000e+00  9.9967524480908065e-01 0.0000000000000000e+00 0.0000000000000000e+00  9.9945436748245298e-01 0.0000000000000000e+00 0.0000000000000000e+00  1.0002854203734637e+00 0.0000000000000000e+00 0.0000000000000000e+00  1.0001622904145253e+00 0.0000000000000000e+00 0.0000000000000000e+00  9.9978535785150680e-01 0.0000000000000000e+00 0.0000000000000000e+00  1.0000001315513529e+00 0.0000000000000000e+00 0.0000000000000000e+00  1.0000001315513529e+00 0.0000000000000000e+00 0.0000000000000000e+00  1.0000001315513529e+00 0.0000000000000000e+00 0.0000000000000000e+00  1.0000001315513529e+00 0.0000000000000000e+00 0.0000000000000000e+00  1.0000001315513529e+00 0.0000000000000000e+00 0.0000000000000000e+00  1.0000001315513529e+00 0.0000000000000000e+00 0.0000000000000000e+00  1.0000001315513529e+00 0.0000000000000000e+00 0.0000000000000000e+00  1.0000001315513529e+00 0.0000000000000000e+00 0.0000000000000000e+00  1.0000001315513529e+00 0.0000000000000000e+00 0.0000000000000000e+00  1.0000001315513529e+00 0.0000000000000000e+00 0.0000000000000000e+00  1.0000001315513529e+00 0.0000000000000000e+00 0.0000000000000000e+00  1.0000001315513529e+00 0.0000000000000000e+00 0.0000000000000000e+00  1.0000001315513529e+00 0.0000000000000000e+00 0.0000000000000000e+00  1.0000001315513529e+00 0.0000000000000000e+00 0.0000000000000000e+00  1.0000001315513529e+00 0.0000000000000000e+00 0.0000000000000000e+00  1.0000001315513529e+00 0.0000000000000000e+00 0.0000000000000000e+00  1.0000001315513529e+00 0.0000000000000000e+00 0.0000000000000000e+00  1.0000001315513529e+00 0.0000000000000000e+00 0.0000000000000000e+00  1.0000001315513529e+00 0.0000000000000000e+00 0.0000000000000000e+00  1.0000001315513529e+00 0.0000000000000000e+00 0.0000000000000000e+00  1.0409751590758693e+00 -8.8903569197258201e-03 0.0000000000000000e+00  1.0384099357747802e+00 -1.8059006200770014e-02 0.0000000000000000e+00  1.0368837724486419e+00 -2.8285690741280997e-02 0.0000000000000000e+00  1.0322076223632828e+00 -3.9111499281155170e-02 0.0000000000000000e+00  1.0278609576069622e+00 -5.3910550312643205e-02 0.0000000000000000e+00  1.0325700891573002e+00 -5.6755010645809290e-02 0.0000000000000000e+00  1.0368007303433169e+00 -5.9603812646235092e-02 0.0000000000000000e+00  1.0420605224197352e+00 -6.2030769060148754e-02 0.0000000000000000e+00  1.0475074020199027e+00 -6.4218101943036732e-02 0.0000000000000000e+00  1.0535275665941510e+00 -6.5855379766437280e-02 0.0000000000000000e+00  1.0600464232204789e+00 -6.7039015813079306e-02 0.0000000000000000e+00  1.0668694271736154e+00 -6.7435797184865434e-02 0.0000000000000000e+00  1.0740951957942679e+00 -6.7155366546180692e-02 0.0000000000000000e+00  1.0812210647031160e+00 -6.5863649827705040e-02 0.0000000000000000e+00  1.0884804430923802e+00 -6.3845652488875138e-02 0.0000000000000000e+00  1.0954749394388417e+00 -6.1011807666553369e-02 0.0000000000000000e+00  1.1022992000260310e+00 -5.7016466124664593e-02 0.0000000000000000e+00  1.1083898725590837e+00 -5.2048558639814856e-02 0.0000000000000000e+00  1.1137828398362970e+00 -4.6473100341959991e-02 0.0000000000000000e+00  1.1183178848061723e+00 -4.0190662907843996e-02 0.0000000000000000e+00  1.1217564854321822e+00 -3.3373298811404287e-02 0.0000000000000000e+00  1.1240364101856626e+00 -2.6220422563750526e-02 0.0000000000000000e+00  1.1251771300767832e+00 -1.9053321008298502e-02 0.0000000000000000e+00  1.1250932543576293e+00 -1.1767979496289920e-02 0.0000000000000000e+00  1.1238428097166302e+00 -5.1447768440129578e-03 0.0000000000000000e+00  1.1214796215042910e+00 1.2831939958933341e-03 0.0000000000000000e+00  1.1180073297129229e+00 6.9624024203931243e-03 0.0000000000000000e+00  1.1138566882392713e+00 1.1544686319783719e-02 0.0000000000000000e+00  1.1089498982860926e+00 1.4996331576865472e-02 0.0000000000000000e+00  1.1036253123862183e+00 1.7247984907400385e-02 0.0000000000000000e+00  1.0981138353585744e+00 1.8309720260862281e-02 0.0000000000000000e+00  1.0927356555866730e+00 1.7938385928860389e-02 0.0000000000000000e+00  1.0876222729974017e+00 1.6365043183184803e-02 0.0000000000000000e+00  1.0832081355917214e+00 1.3704515342040712e-02 0.0000000000000000e+00  1.0797414803018037e+00 9.9226375055503531e-03 0.0000000000000000e+00  1.0773351313687038e+00 5.420304