<?xml version="1.0"?>
<VTKFile type="UnstructuredGrid"  version="0.1"  >
<UnstructuredGrid>
<Piece  NumberOfPoints="10199" NumberOfCells="20110">
<Points>
<DataArray  type="Float64"  NumberOfComponents="3"  format="ascii">0 -5 0  8 -5 0  30 -5 0  40 -5 0  40 5 0  30 5 0  8 5 0  0 5 0  8 -2.5 0  15 -2.5 0  30 -2.5 0  30 2.5 0  15 2.5 0  8 2.5 0  10 0.5 0  10 -0.5 0  0 0 0  0.4210526315780956 -5 0  0.8421052631563433 -5 0  1.263157894734281 -5 0  1.684210526311999 -5 0  2.105263157889717 -5 0  2.526315789467435 -5 0  2.947368421045153 -5 0  3.368421052622872 -5 0  3.78947368420059 -5 0  4.210526315779479 -5 0  4.631578947359537 -5 0  5.052631578939595 -5 0  5.473684210519653 -5 0  5.89473684209971 -5 0  6.315789473679768 -5 0  6.736842105259826 -5 0  7.157894736839884 -5 0  7.578947368419942 -5 0  8.407407407405314 -5 0  8.814814814810628 -5 0  9.222222222215942 -5 0  9.629629629621256 -5 0  10.03703703702657 -5 0  10.44444444443188 -5 0  10.8518518518372 -5 0  11.25925925924251 -5 0  11.66666666664783 -5 0  12.07407407405314 -5 0  12.48148148145846 -5 0  12.88888888886377 -5 0  13.29629629626908 -5 0  13.7037037036744 -5 0  14.11111111107971 -5 0  14.51851851848502 -5 0  14.92592592589034 -5 0  15.33333333329565 -5 0  15.74074074070096 -5 0  16.14814814810754 -5 0  16.55555555551614 -5 0  16.96296296292474 -5 0  17.37037037033335 -5 0  17.77777777774195 -5 0  18.18518518515056 -5 0  18.59259259255916 -5 0  18.99999999996776 -5 0  19.40740740737636 -5 0  19.81481481478497 -5 0  20.22222222219357 -5 0  20.62962962960217 -5 0  21.03703703701077 -5 0  21.44444444441937 -5 0  21.85185185182797 -5 0  22.25925925923657 -5 0  22.66666666664518 -5 0  23.07407407405378 -5 0  23.48148148146238 -5 0  23.88888888887098 -5 0  24.29629629627958 -5 0  24.70370370368818 -5 0  25.11111111109678 -5 0  25.51851851850539 -5 0  25.92592592591399 -5 0  26.33333333332259 -5 0  26.74074074073119 -5 0  27.14814814813979 -5 0  27.55555555554839 -5 0  27.96296296295699 -5 0  28.3703703703656 -5 0  28.7777777777742 -5 0  29.1851851851828 -5 0  29.5925925925914 -5 0  30.41666666667852 -5 0  30.83333333335704 -5 0  31.25000000003556 -5 0  31.66666666671408 -5 0  32.08333333338936 -5 0  32.50000000005308 -5 0  32.9166666667168 -5 0  33.33333333338052 -5 0  33.75000000004424 -5 0  34.16666666670795 -5 0  34.58333333337167 -5 0  35.00000000003539 -5 0  35.41666666669911 -5 0  35.83333333336282 -5 0  36.25000000002654 -5 0  36.66666666669026 -5 0  37.08333333335398 -5 0  37.50000000001769 -5 0  37.91666666668141 -5 0  38.33333333334513 -5 0  38.75000000000885 -5 0  39.16666666667257 -5 0  39.58333333333628 -5 0  40 -4.583333333332821 0  40 -4.166666666665642 0  40 -3.74999999999855 0  40 -3.333333333333135 0  40 -2.916666666667806 0  40 -2.500000000002478 0  40 -2.083333333337148 0  40 -1.666666666671818 0  40 -1.250000000006488 0  40 -0.8333333333405228 0  40 -0.4166666666733416 0  40 -6.163070054299169e-12 0  40 0.4166666666610173 0  40 0.8333333333281976 0  40 1.249999999995378 0  40 1.666666666662558 0  40 2.083333333329739 0  40 2.499999999996919 0  40 2.916666666664099 0  40 3.33333333333128 0  40 3.74999999999846 0  40 4.166666666665641 0  40 4.583333333332821 0  39.58333333333628 5 0  39.16666666667256 5 0  38.75000000000885 5 0  38.33333333334513 5 0  37.91666666668141 5 0  37.50000000001769 5 0  37.08333333335398 5 0  36.66666666669025 5 0  36.25000000002654 5 0  35.83333333336282 5 0  35.41666666669911 5 0  35.00000000003539 5 0  34.58333333337167 5 0  34.16666666670795 5 0  33.75000000004424 5 0  33.33333333338052 5 0  32.9166666667168 5 0  32.50000000005308 5 0  32.08333333338936 5 0  31.66666666671408 5 0  31.25000000003556 5 0  30.83333333335704 5 0  30.41666666667852 5 0  29.59259259259259 5 0  29.18518518518519 5 0  28.77777777777778 5 0  28.37037037037037 5 0  27.96296296296296 5 0  27.55555555555556 5 0  27.14814814814815 5 0  26.74074074074074 5 0  26.33333333333333 5 0  25.92592592592593 5 0  25.51851851851852 5 0  25.11111111111111 5 0  24.7037037037037 5 0  24.2962962962963 5 0  23.88888888888889 5 0  23.48148148148148 5 0  23.07407407407408 5 0  22.66666666666667 5 0  22.25925925925926 5 0  21.85185185185185 5 0  21.44444444444445 5 0  21.03703703703704 5 0  20.62962962962963 5 0  20.22222222222222 5 0  19.81481481481482 5 0  19.40740740740741 5 0  19 5 0  18.5925925925926 5 0  18.18518518518519 5 0  17.77777777777778 5 0  17.37037037037037 5 0  16.96296296296296 5 0  16.55555555555556 5 0  16.14814814814815 5 0  15.74074074074074 5 0  15.33333333333333 5 0  14.92592592592593 5 0  14.51851851851852 5 0  14.11111111111111 5 0  13.70370370370371 5 0  13.2962962962963 5 0  12.88888888888889 5 0  12.48148148148148 5 0  12.07407407407408 5 0  11.66666666666667 5 0  11.25925925925926 5 0  10.85185185185185 5 0  10.44444444444445 5 0  10.03703703703704 5 0  9.629629629629633 5 0  9.222222222222221 5 0  8.814814814814817 5 0  8.407407407407408 5 0  7.5789473684193 5 0  7.157894736838599 5 0  6.73684210526082 5 0  6.315789473684795 5 0  5.894736842108769 5 0  5.473684210532742 5 0  5.052631578956715 5 0  4.631578947380689 5 0  4.210526315804662 5 0  3.789473684226299 5 0  3.368421052645599 5 0  2.947368421064898 5 0  2.526315789484198 5 0  2.105263157903499 5 0  1.6842105263228 5 0  1.2631578947421 5 0  0.8421052631613994 5 0  0.4210526315806993 5 0  0 4.545454545454545 0  0 4.09090909090909 0  0 3.636363636363634 0  0 3.18181818181818 0  0 2.727272727272726 0  0 2.272727272727271 0  0 1.818181818181817 0  0 1.363636363636363 0  0 0.9090909090909092 0  0 0.454545454545455 0  0 -0.4545454545450807 0  0 -0.9090909090895867 0  0 -1.363636363633713 0  0 -1.818181818177841 0  0 -2.272727272723127 0  0 -2.727272727269273 0  0 -3.181818181815419 0  0 -3.636363636361564 0  0 -4.090909090907709 0  0 -4.545454545453855 0  8 -4.499999999999999 0  8 -3.999999999999999 0  8 -3.499999999999999 0  8 -3 0  8.137254901963859 -2.5 0  8.274509803926303 -2.5 0  8.411764705886863 -2.5 0  8.549019607849138 -2.5 0  8.686274509809513 -2.5 0  8.82352941176989 -2.5 0  8.960784313730265 -2.5 0  9.098039215690642 -2.5 0  9.235294117651017 -2.5 0  9.372549019611395 -2.5 0  9.50980392157177 -2.5 0  9.647058823532147 -2.5 0  9.784313725492522 -2.5 0  9.921568627452897 -2.5 0  10.05882352941327 -2.5 0  10.19607843137365 -2.5 0  10.33333333333402 -2.5 0  10.4705882352944 -2.5 0  10.60784313725478 -2.5 0  10.74509803921515 -2.5 0  10.88235294117553 -2.5 0  11.0196078431359 -2.5 0  11.15686274509628 -2.5 0  11.29411764705665 -2.5 0  11.43137254901703 -2.5 0  11.56862745097915 -2.5 0  11.70588235294301 -2.5 0  11.84313725490686 -2.5 0  11.98039215687072 -2.5 0  12.11764705883209 -2.5 0  12.25490196079247 -2.5 0  12.39215686275285 -2.5 0  12.52941176471322 -2.5 0  12.6666666666736 -2.5 0  12.80392156863397 -2.5 0  12.94117647059435 -2.5 0  13.07843137255473 -2.5 0  13.2156862745151 -2.5 0  13.35294117647548 -2.5 0  13.49019607843586 -2.5 0  13.62745098039623 -2.5 0  13.76470588235661 -2.5 0  13.90196078431699 -2.5 0  14.03921568627736 -2.5 0  14.17647058823774 -2.5 0  14.31372549019812 -2.5 0  14.45098039215849 -2.5 0  14.58823529411887 -2.5 0  14.72549019607925 -2.5 0  14.86274509803962 -2.5 0  15.20270270270254 -2.5 0  15.40540540540509 -2.5 0  15.60810810810763 -2.5 0  15.81081081081017 -2.5 0  16.01351351351227 -2.5 0  16.21621621621265 -2.5 0  16.41891891891279 -2.5 0  16.62162162161294 -2.5 0  16.82432432431308 -2.5 0  17.02702702701322 -2.5 0  17.22972972971337 -2.5 0  17.43243243241351 -2.5 0  17.63513513511365 -2.5 0  17.83783783781379 -2.5 0  18.04054054051394 -2.5 0  18.24324324321408 -2.5 0  18.44594594591422 -2.5 0  18.64864864861436 -2.5 0  18.85135135131451 -2.5 0  19.05405405401465 -2.5 0  19.25675675671479 -2.5 0  19.45945945941494 -2.5 0  19.66216216211508 -2.5 0  19.86486486481522 -2.5 0  20.06756756751536 -2.5 0  20.27027027021551 -2.5 0  20.47297297291565 -2.5 0  20.6756756756158 -2.5 0  20.87837837831594 -2.5 0  21.08108108101608 -2.5 0  21.28378378371622 -2.5 0  21.48648648641637 -2.5 0  21.68918918911651 -2.5 0  21.89189189181666 -2.5 0  22.0945945945168 -2.5 0  22.29729729721694 -2.5 0  22.49999999991778 -2.5 0  22.70270270262203 -2.5 0  22.90540540532697 -2.5 0  23.10810810803191 -2.5 0  23.31081081073686 -2.5 0  23.5135135134418 -2.5 0  23.71621621614674 -2.5 0  23.91891891885169 -2.5 0  24.12162162155663 -2.5 0  24.32432432426158 -2.5 0  24.52702702696652 -2.5 0  24.72972972967146 -2.5 0  24.93243243237641 -2.5 0  25.13513513508135 -2.5 0  25.3378378377863 -2.5 0  25.54054054049124 -2.5 0  25.74324324319618 -2.5 0  25.94594594590112 -2.5 0  26.14864864860607 -2.5 0  26.35135135131101 -2.5 0  26.55405405401596 -2.5 0  26.7567567567209 -2.5 0  26.95945945942584 -2.5 0  27.16216216213079 -2.5 0  27.36486486483573 -2.5 0  27.56756756754068 -2.5 0  27.77027027024562 -2.5 0  27.97297297295056 -2.5 0  28.1756756756555 -2.5 0  28.37837837836045 -2.5 0  28.5810810810654 -2.5 0  28.78378378377034 -2.5 0  28.98648648647528 -2.5 0  29.18918918918023 -2.5 0  29.39189189188517 -2.5 0  29.59459459459011 -2.5 0  29.79729729729506 -2.5 0  30 -3.000000000000001 0  30 -3.500000000000001 0  30 -4.000000000000001 0  30 -4.5 0  8 4.499999999999999 0  8 3.999999999999999 0  8 3.499999999999999 0  8 3 0  8.137254901963859 2.5 0  8.274509803926303 2.5 0  8.411764705886863 2.5 0  8.549019607849138 2.5 0  8.686274509809513 2.5 0  8.82352941176989 2.5 0  8.960784313730265 2.5 0  9.098039215690642 2.5 0  9.235294117651017 2.5 0  9.372549019611395 2.5 0  9.50980392157177 2.5 0  9.647058823532147 2.5 0  9.784313725492522 2.5 0  9.921568627452897 2.5 0  10.05882352941327 2.5 0  10.19607843137365 2.5 0  10.33333333333402 2.5 0  10.4705882352944 2.5 0  10.60784313725478 2.5 0  10.74509803921515 2.5 0  10.88235294117553 2.5 0  11.0196078431359 2.5 0  11.15686274509628 2.5 0  11.29411764705665 2.5 0  11.43137254901703 2.5 0  11.56862745097915 2.5 0  11.70588235294301 2.5 0  11.84313725490686 2.5 0  11.98039215687072 2.5 0  12.11764705883209 2.5 0  12.25490196079247 2.5 0  1
[...]
<PointData  Vectors="f_17"> 
<DataArray  type="Float64"  Name="f_17"  NumberOfComponents="3" format="ascii">1.0000001304719588e+00 0.0000000000000000e+00 0.0000000000000000e+00  1.0417847645907810e+00 0.0000000000000000e+00 0.0000000000000000e+00  1.0643863081416245e+00 0.0000000000000000e+00 0.0000000000000000e+00  1.1080848951208999e+00 0.0000000000000000e+00 0.0000000000000000e+00  1.1414681445186186e+00 0.0000000000000000e+00 0.0000000000000000e+00  1.0823238896720495e+00 0.0000000000000000e+00 0.0000000000000000e+00  1.0400352665694268e+00 0.0000000000000000e+00 0.0000000000000000e+00  1.0000001304719588e+00 0.0000000000000000e+00 0.0000000000000000e+00  1.0204742212554321e+00 -5.2508069010956691e-02 0.0000000000000000e+00  1.0323904009988767e+00 -5.3430695790278711e-02 0.0000000000000000e+00  9.9665866270034631e-01 1.5355575950931179e-03 0.0000000000000000e+00  1.1760344251237245e+00 1.0047021245757407e-02 0.0000000000000000e+00  1.0780309160829025e+00 -8.9547160247904392e-02 0.0000000000000000e+00  1.0224152253707468e+00 5.0166062207096906e-02 0.0000000000000000e+00  0.0000000000000000e+00 0.0000000000000000e+00 0.0000000000000000e+00  0.0000000000000000e+00 0.0000000000000000e+00 0.0000000000000000e+00  1.0000001304719588e+00 0.0000000000000000e+00 0.0000000000000000e+00  9.9928179514240356e-01 0.0000000000000000e+00 0.0000000000000000e+00  9.9867065191880100e-01 0.0000000000000000e+00 0.0000000000000000e+00  1.0006691027193915e+00 0.0000000000000000e+00 0.0000000000000000e+00  1.0004105084054773e+00 0.0000000000000000e+00 0.0000000000000000e+00  1.0013172011345368e+00 0.0000000000000000e+00 0.0000000000000000e+00  1.0015767314799133e+00 0.0000000000000000e+00 0.0000000000000000e+00  1.0018564212196166e+00 0.0000000000000000e+00 0.0000000000000000e+00  1.0026949783848478e+00 0.0000000000000000e+00 0.0000000000000000e+00  1.0039309308045332e+00 0.0000000000000000e+00 0.0000000000000000e+00  1.0051022494012027e+00 0.0000000000000000e+00 0.0000000000000000e+00  1.0065883790050276e+00 0.0000000000000000e+00 0.0000000000000000e+00  1.0088578255089151e+00 0.0000000000000000e+00 0.0000000000000000e+00  1.0112041574565045e+00 0.0000000000000000e+00 0.0000000000000000e+00  1.0150963443429031e+00 0.0000000000000000e+00 0.0000000000000000e+00  1.0168063224421267e+00 0.0000000000000000e+00 0.0000000000000000e+00  1.0213389484517559e+00 0.0000000000000000e+00 0.0000000000000000e+00  1.0281033693409611e+00 0.0000000000000000e+00 0.0000000000000000e+00  1.0336198807127086e+00 0.0000000000000000e+00 0.0000000000000000e+00  1.0500958602046635e+00 0.0000000000000000e+00 0.0000000000000000e+00  1.0589291646552601e+00 0.0000000000000000e+00 0.0000000000000000e+00  1.0672534593827561e+00 0.0000000000000000e+00 0.0000000000000000e+00  1.0760154180644224e+00 0.0000000000000000e+00 0.0000000000000000e+00  1.0830408009289423e+00 0.0000000000000000e+00 0.0000000000000000e+00  1.0889579676600161e+00 0.0000000000000000e+00 0.0000000000000000e+00  1.0938038344802434e+00 0.0000000000000000e+00 0.0000000000000000e+00  1.0952556219670480e+00 0.0000000000000000e+00 0.0000000000000000e+00  1.0950258685837915e+00 0.0000000000000000e+00 0.0000000000000000e+00  1.0924679100082124e+00 0.0000000000000000e+00 0.0000000000000000e+00  1.0886530876151881e+00 0.0000000000000000e+00 0.0000000000000000e+00  1.0829095312258554e+00 0.0000000000000000e+00 0.0000000000000000e+00  1.0781705043623555e+00 0.0000000000000000e+00 0.0000000000000000e+00  1.0739563632099252e+00 0.0000000000000000e+00 0.0000000000000000e+00  1.0709594977869441e+00 0.0000000000000000e+00 0.0000000000000000e+00  1.0699417410842273e+00 0.0000000000000000e+00 0.0000000000000000e+00  1.0702589603949504e+00 0.0000000000000000e+00 0.0000000000000000e+00  1.0715358446139012e+00 0.0000000000000000e+00 0.0000000000000000e+00  1.0724925161557921e+00 0.0000000000000000e+00 0.0000000000000000e+00  1.0721606849595531e+00 0.0000000000000000e+00 0.0000000000000000e+00  1.0713143413587154e+00 0.0000000000000000e+00 0.0000000000000000e+00  1.0688002214819785e+00 0.0000000000000000e+00 0.0000000000000000e+00  1.0632735957058583e+00 0.0000000000000000e+00 0.0000000000000000e+00  1.0574768525750500e+00 0.0000000000000000e+00 0.0000000000000000e+00  1.0513023850699528e+00 0.0000000000000000e+00 0.0000000000000000e+00  1.0459762235085028e+00 0.0000000000000000e+00 0.0000000000000000e+00  1.0428602752630862e+00 0.0000000000000000e+00 0.0000000000000000e+00  1.0417992346551015e+00 0.0000000000000000e+00 0.0000000000000000e+00  1.0434237682256424e+00 0.0000000000000000e+00 0.0000000000000000e+00  1.0478580919526570e+00 0.0000000000000000e+00 0.0000000000000000e+00  1.0531245621121783e+00 0.0000000000000000e+00 0.0000000000000000e+00  1.0587451851770295e+00 0.0000000000000000e+00 0.0000000000000000e+00  1.0652030744230243e+00 0.0000000000000000e+00 0.0000000000000000e+00  1.0686989567324403e+00 0.0000000000000000e+00 0.0000000000000000e+00  1.0694753095564578e+00 0.0000000000000000e+00 0.0000000000000000e+00  1.0685158170087787e+00 0.0000000000000000e+00 0.0000000000000000e+00  1.0646988167908114e+00 0.0000000000000000e+00 0.0000000000000000e+00  1.0596067222797387e+00 0.0000000000000000e+00 0.0000000000000000e+00  1.0560966978081416e+00 0.0000000000000000e+00 0.0000000000000000e+00  1.0528149380341647e+00 0.0000000000000000e+00 0.0000000000000000e+00  1.0514500436167113e+00 0.0000000000000000e+00 0.0000000000000000e+00  1.0532255331040330e+00 0.0000000000000000e+00 0.0000000000000000e+00  1.0565046569210619e+00 0.0000000000000000e+00 0.0000000000000000e+00  1.0614039530473693e+00 0.0000000000000000e+00 0.0000000000000000e+00  1.0677742284920755e+00 0.0000000000000000e+00 0.0000000000000000e+00  1.0728708355390395e+00 0.0000000000000000e+00 0.0000000000000000e+00  1.0761682808395547e+00 0.0000000000000000e+00 0.0000000000000000e+00  1.0798740002832694e+00 0.0000000000000000e+00 0.0000000000000000e+00  1.0791781212940759e+00 0.0000000000000000e+00 0.0000000000000000e+00  1.0747439464170092e+00 0.0000000000000000e+00 0.0000000000000000e+00  1.0703059955139098e+00 0.0000000000000000e+00 0.0000000000000000e+00  1.0675281766491256e+00 0.0000000000000000e+00 0.0000000000000000e+00  1.0647384770624531e+00 0.0000000000000000e+00 0.0000000000000000e+00  1.0658594109514252e+00 0.0000000000000000e+00 0.0000000000000000e+00  1.0686465811235906e+00 0.0000000000000000e+00 0.0000000000000000e+00  1.0730526278284040e+00 0.0000000000000000e+00 0.0000000000000000e+00  1.0789358714124557e+00 0.0000000000000000e+00 0.0000000000000000e+00  1.0846198608608857e+00 0.0000000000000000e+00 0.0000000000000000e+00  1.0886413575450395e+00 0.0000000000000000e+00 0.0000000000000000e+00  1.0909121454468291e+00 0.0000000000000000e+00 0.0000000000000000e+00  1.0916294474413624e+00 0.0000000000000000e+00 0.0000000000000000e+00  1.0907764350032101e+00 0.0000000000000000e+00 0.0000000000000000e+00  1.0886184960795986e+00 0.0000000000000000e+00 0.0000000000000000e+00  1.0869300434714222e+00 0.0000000000000000e+00 0.0000000000000000e+00  1.0862995727517122e+00 0.0000000000000000e+00 0.0000000000000000e+00  1.0871125961620549e+00 0.0000000000000000e+00 0.0000000000000000e+00  1.0905825231647670e+00 0.0000000000000000e+00 0.0000000000000000e+00  1.0957792462456650e+00 0.0000000000000000e+00 0.0000000000000000e+00  1.1026652208690242e+00 0.0000000000000000e+00 0.0000000000000000e+00  1.1085338604099548e+00 0.0000000000000000e+00 0.0000000000000000e+00  1.1138604402943331e+00 0.0000000000000000e+00 0.0000000000000000e+00  1.1168219816573952e+00 0.0000000000000000e+00 0.0000000000000000e+00  1.1182610838217284e+00 0.0000000000000000e+00 0.0000000000000000e+00  1.1167944698296279e+00 0.0000000000000000e+00 0.0000000000000000e+00  1.1144543827353177e+00 0.0000000000000000e+00 0.0000000000000000e+00  1.1106746057814427e+00 0.0000000000000000e+00 0.0000000000000000e+00  1.1081158836765221e+00 2.7687529422368972e-03 0.0000000000000000e+00  1.1069512970538327e+00 6.0735856838714051e-03 0.0000000000000000e+00  1.1036886885694013e+00 1.0990281063310197e-02 0.0000000000000000e+00  1.0966225923140822e+00 1.9742309328836333e-02 0.0000000000000000e+00  1.0876993548691587e+00 3.4988416428402142e-02 0.0000000000000000e+00  1.0694194561781905e+00 5.9107495010695059e-02 0.0000000000000000e+00  1.0321201065383203e+00 8.9440425517590474e-02 0.0000000000000000e+00  9.6903517338042167e-01 1.2024321508047618e-01 0.0000000000000000e+00  8.8304231216377527e-01 1.4418809467669486e-01 0.0000000000000000e+00  7.9143491811648170e-01 1.5153689067511872e-01 0.0000000000000000e+00  7.1054794959575085e-01 1.5253402080651945e-01 0.0000000000000000e+00  6.5389321935022382e-01 1.6148962093336261e-01 0.0000000000000000e+00  6.4994088215984946e-01 1.8280595044313161e-01 0.0000000000000000e+00  7.1751199217347639e-01 2.1005604562331706e-01 0.0000000000000000e+00  8.4462173549696795e-01 2.3494895175464817e-01 0.0000000000000000e+00  9.9224506884428165e-01 2.3131332294890439e-01 0.0000000000000000e+00  1.1095945151371880e+00 1.9776302640323468e-01 0.0000000000000000e+00  1.1712701739532747e+00 1.5173352901245871e-01 0.0000000000000000e+00  1.1755074346171552e+00 1.0419846706511472e-01 0.0000000000000000e+00  1.1609601274261794e+00 6.6017472996057688e-02 0.0000000000000000e+00  1.1517209681961296e+00 4.1466491432164222e-02 0.0000000000000000e+00  1.1467953909001156e+00 2.4463734167127139e-02 0.0000000000000000e+00  1.1431556466584862e+00 1.1176275511005725e-02 0.0000000000000000e+00  1.1299946453711569e+00 0.0000000000000000e+00 0.0000000000000000e+00  1.1187490937141142e+00 0.0000000000000000e+00 0.0000000000000000e+00  1.1088875609376927e+00 0.0000000000000000e+00 0.0000000000000000e+00  1.1020828374955181e+00 0.0000000000000000e+00 0.0000000000000000e+00  1.0974546574124300e+00 0.0000000000000000e+00 0.0000000000000000e+00  1.0958520972329355e+00 0.0000000000000000e+00 0.0000000000000000e+00  1.0961371960622828e+00 0.0000000000000000e+00 0.0000000000000000e+00  1.0977928498572362e+00 0.0000000000000000e+00 0.0000000000000000e+00  1.0986426460377685e+00 0.0000000000000000e+00 0.0000000000000000e+00  1.0992913108297215e+00 0.0000000000000000e+00 0.0000000000000000e+00  1.0981936610865193e+00 0.0000000000000000e+00 0.0000000000000000e+00  1.0954205742494139e+00 0.0000000000000000e+00 0.0000000000000000e+00  1.0909292456040223e+00 0.0000000000000000e+00 0.0000000000000000e+00  1.0861979003003988e+00 0.0000000000000000e+00 0.0000000000000000e+00  1.0803076936472407e+00 0.0000000000000000e+00 0.0000000000000000e+00  1.0764068692104189e+00 0.0000000000000000e+00 0.0000000000000000e+00  1.0727665839279230e+00 0.0000000000000000e+00 0.0000000000000000e+00  1.0718154519077767e+00 0.0000000000000000e+00 0.0000000000000000e+00  1.0728000108712794e+00 0.0000000000000000e+00 0.0000000000000000e+00  1.0759846947552985e+00 0.0000000000000000e+00 0.0000000000000000e+00  1.0793124927542426e+00 0.0000000000000000e+00 0.0000000000000000e+00  1.0819142276853575e+00 0.0000000000000000e+00 0.0000000000000000e+00  1.0832934866184336e+00 0.0000000000000000e+00 0.0000000000000000e+00  1.0786271659104028e+00 0.0000000000000000e+00 0.0000000000000000e+00  1.0738697459129689e+00 0.0000000000000000e+00 0.0000000000000000e+00  1.0674487428231090e+00 0.0000000000000000e+00 0.0000000000000000e+00  1.0627202680742094e+00 0.0000000000000000e+00 0.0000000000000000e+00  1.0600222684823055e+00 0.0000000000000000e+00 0.0000000000000000e+00  1.0581060914922034e+00 0.0000000000000000e+00 0.0000000000000000e+00  1.0565106102477118e+00 0.0000000000000000e+00 0.0000000000000000e+00  1.0592563275480704e+00 0.0000000000000000e+00 0.0000000000000000e+00  1.0634604461033355e+00 0.0000000000000000e+00 0.0000000000000000e+00  1.0674046237046801e+00 0.0000000000000000e+00 0.0000000000000000e+00  1.0713434488960587e+00 0.0000000000000000e+00 0.0000000000000000e+00  1.0735828706160675e+00 0.0000000000000000e+00 0.0000000000000000e+00  1.0727298282251159e+00 0.0000000000000000e+00 0.0000000000000000e+00  1.0700688926492226e+00 0.0000000000000000e+00 0.0000000000000000e+00  1.0650961257328482e+00 0.0000000000000000e+00 0.0000000000000000e+00  1.0581264004122237e+00 0.0000000000000000e+00 0.0000000000000000e+00  1.0525057845724184e+00 0.0000000000000000e+00 0.0000000000000000e+00  1.0480145208824723e+00 0.0000000000000000e+00 0.0000000000000000e+00  1.0446363706406592e+00 0.0000000000000000e+00 0.0000000000000000e+00  1.0447836968965722e+00 0.0000000000000000e+00 0.0000000000000000e+00  1.0471902134538129e+00 0.0000000000000000e+00 0.0000000000000000e+00  1.0504646985392507e+00 0.0000000000000000e+00 0.0000000000000000e+00  1.0561482071677017e+00 0.0000000000000000e+00 0.0000000000000000e+00  1.0616260159732658e+00 0.0000000000000000e+00 0.0000000000000000e+00  1.0650596118681375e+00 0.0000000000000000e+00 0.0000000000000000e+00  1.0667468002954952e+00 0.0000000000000000e+00 0.0000000000000000e+00  1.0660116568237086e+00 0.0000000000000000e+00 0.0000000000000000e+00  1.0625980046372714e+00 0.0000000000000000e+00 0.0000000000000000e+00  1.0581599438050473e+00 0.0000000000000000e+00 0.0000000000000000e+00  1.0533619480918071e+00 0.0000000000000000e+00 0.0000000000000000e+00  1.0492090531062792e+00 0.0000000000000000e+00 0.0000000000000000e+00  1.0475996164278611e+00 0.0000000000000000e+00 0.0000000000000000e+00  1.0472321699490363e+00 0.0000000000000000e+00 0.0000000000000000e+00  1.0497790139409691e+00 0.0000000000000000e+00 0.0000000000000000e+00  1.0552320364508301e+00 0.0000000000000000e+00 0.0000000000000000e+00  1.0621553597131350e+00 0.0000000000000000e+00 0.0000000000000000e+00  1.0692792707065484e+00 0.0000000000000000e+00 0.0000000000000000e+00  1.0759342033028516e+00 0.0000000000000000e+00 0.0000000000000000e+00  1.0822067971553220e+00 0.0000000000000000e+00 0.0000000000000000e+00  1.0880359903838583e+00 0.0000000000000000e+00 0.0000000000000000e+00  1.0916979084649905e+00 0.0000000000000000e+00 0.0000000000000000e+00  1.0937350930952092e+00 0.0000000000000000e+00 0.0000000000000000e+00  1.0958987899698927e+00 0.0000000000000000e+00 0.0000000000000000e+00  1.0952579959803197e+00 0.0000000000000000e+00 0.0000000000000000e+00  1.0944364251528373e+00 0.0000000000000000e+00 0.0000000000000000e+00  1.0921738600510751e+00 0.0000000000000000e+00 0.0000000000000000e+00  1.0881364733743419e+00 0.0000000000000000e+00 0.0000000000000000e+00  1.0831278285260841e+00 0.0000000000000000e+00 0.0000000000000000e+00  1.0773856083958482e+00 0.0000000000000000e+00 0.0000000000000000e+00  1.0707739134943133e+00 0.0000000000000000e+00 0.0000000000000000e+00  1.0628491031685698e+00 0.0000000000000000e+00 0.0000000000000000e+00  1.0555928442837865e+00 0.0000000000000000e+00 0.0000000000000000e+00  1.0476617812344899e+00 0.0000000000000000e+00 0.0000000000000000e+00  1.0326109392498437e+00 0.0000000000000000e+00 0.0000000000000000e+00  1.0260969299091587e+00 0.0000000000000000e+00 0.0000000000000000e+00  1.0209226910915883e+00 0.0000000000000000e+00 0.0000000000000000e+00  1.0162524974771145e+00 0.0000000000000000e+00 0.0000000000000000e+00  1.0124556401149325e+00 0.0000000000000000e+00 0.0000000000000000e+00  1.0094653053763611e+00 0.0000000000000000e+00 0.0000000000000000e+00  1.0072175848157074e+00 0.0000000000000000e+00 0.0000000000000000e+00  1.0050703897077702e+00 0.0000000000000000e+00 0.0000000000000000e+00  1.0036169708994893e+00 0.0000000000000000e+00 0.0000000000000000e+00  1.0026573135933801e+00 0.0000000000000000e+00 0.0000000000000000e+00  1.0015314945251987e+00 0.0000000000000000e+00 0.0000000000000000e+00  1.0014208367387081e+00 0.0000000000000000e+00 0.0000000000000000e+00  1.0003934407072972e+00 0.0000000000000000e+00 0.0000000000000000e+00  1.0003813916803290e+00 0.0000000000000000e+00 0.0000000000000000e+00  9.9994548865028987e-01 0.0000000000000000e+00 0.0000000000000000e+00  1.0005916917132207e+00 0.0000000000000000e+00 0.0000000000000000e+00  1.0002985589094455e+00 0.0000000000000000e+00 0.0000000000000000e+00  9.9980488030953818e-01 0.0000000000000000e+00 0.0000000000000000e+00  1.0000001304719588e+00 0.0000000000000000e+00 0.0000000000000000e+00  1.0000001304719588e+00 0.0000000000000000e+00 0.0000000000000000e+00  1.0000001304719588e+00 0.0000000000000000e+00 0.0000000000000000e+00  1.0000001304719588e+00 0.0000000000000000e+00 0.0000000000000000e+00  1.0000001304719588e+00 0.0000000000000000e+00 0.0000000000000000e+00  1.0000001304719588e+00 0.0000000000000000e+00 0.0000000000000000e+00  1.0000001304719588e+00 0.0000000000000000e+00 0.0000000000000000e+00  1.0000001304719588e+00 0.0000000000000000e+00 0.0000000000000000e+00  1.0000001304719588e+00 0.0000000000000000e+00 0.0000000000000000e+00  1.0000001304719588e+00 0.0000000000000000e+00 0.0000000000000000e+00  1.0000001304719588e+00 0.0000000000000000e+00 0.0000000000000000e+00  1.0000001304719588e+00 0.0000000000000000e+00 0.0000000000000000e+00  1.0000001304719588e+00 0.0000000000000000e+00 0.0000000000000000e+00  1.0000001304719588e+00 0.0000000000000000e+00 0.0000000000000000e+00  1.0000001304719588e+00 0.0000000000000000e+00 0.0000000000000000e+00  1.0000001304719588e+00 0.0000000000000000e+00 0.0000000000000000e+00  1.0000001304719588e+00 0.0000000000000000e+00 0.0000000000000000e+00  1.0000001304719588e+00 0.0000000000000000e+00 0.0000000000000000e+00  1.0000001304719588e+00 0.0000000000000000e+00 0.0000000000000000e+00  1.0000001304719588e+00 0.0000000000000000e+00 0.0000000000000000e+00  1.0411541771639490e+00 -9.7059126508795088e-03 0.0000000000000000e+00  1.0380435941987813e+00 -1.9588222156908461e-02 0.0000000000000000e+00  1.0356016564906880e+00 -3.0153485789755814e-02 0.0000000000000000e+00  1.0295219672480260e+00 -4.1254876942196976e-02 0.0000000000000000e+00  1.0231787047522305e+00 -5.6441725895515063e-02 0.0000000000000000e+00  1.0276075701218876e+00 -6.0041165997935027e-02 0.0000000000000000e+00  1.0316983894299592e+00 -6.3718327628151661e-02 0.0000000000000000e+00  1.0368055804883414e+00 -6.7117301496816301e-02 0.0000000000000000e+00  1.0422137889130032e+00 -7.0369270181340482e-02 0.0000000000000000e+00  1.0482667143141744e+00 -7.3224386909009981e-02 0.0000000000000000e+00  1.0549217774114690e+00 -7.5717864607079410e-02 0.0000000000000000e+00  1.0620625971653730e+00 -7.7554343621169711e-02 0.0000000000000000e+00  1.0697319909141179e+00 -7.8841530951684308e-02 0.0000000000000000e+00  1.0775809647440413e+00 -7.9238526942005574e-02 0.0000000000000000e+00  1.0857842283022403e+00 -7.8957714304307661e-02 0.0000000000000000e+00  1.0940814814346775e+00 -7.7862252482274186e-02 0.0000000000000000e+00  1.1024871079670542e+00 -7.5672738850053323e-02 0.0000000000000000e+00  1.1105746086180057e+00 -7.2506469118687036e-02 0.0000000000000000e+00  1.1184192190354600e+00 -6.8548565068637421e-02 0.0000000000000000e+00  1.1258629668723243e+00 -6.3696861139040648e-02 0.0000000000000000e+00  1.1326782698959534e+00 -5.7971721038519650e-02 0.0000000000000000e+00  1.1388820576249621e+00 -5.1518778273091134e-02 0.0000000000000000e+00  1.1443155243420307e+00 -4.4427678097878079e-02 0.0000000000000000e+00  1.1489781339744829e+00 -3.6597398797790157e-02 0.0000000000000000e+00  1.1527731691654284e+00 -2.8443565785668465e-02 0.0000000000000000e+00  1.1556621527813424e+00 -1.9719856110105429e-02 0.0000000000000000e+00  1.1574222305582524e+00 -1.0584689661501532e-02 0.0000000000000000e+00  1.1582836313146418e+00 -1.2659496788882606e-03 0.0000000000000000e+00  1.1578799820665173e+00 8.1567137859502609e-03 0.0000000000000000e+00  1.1563502297216059e+00 1.7630536615487389e-02 0.0000000000000000e+00  1.1535609643256748e+00 2.6965782214043138e-02 0.0000000000000000e+00  1.1494876204858340e+00 3.5891650344498469e-02 0.0000000000000000e+00  1.1442181491535683e+00 4.4440666092102281e-02 0.0000000000000000e+00  1.1376861355993590e+00 5.2387466254580212e-02 0.0000000000000000e+00  1.1300771259010609e+00 5.9402662560065503e-02 0.0000000000000000e+00  1.1214435370721598e+00 6.5384803203532446e-02 0.000