<?xml version="1.0"?>
<VTKFile type="UnstructuredGrid"  version="0.1"  >
<UnstructuredGrid>
<Piece  NumberOfPoints="10199" NumberOfCells="20110">
<Points>
<DataArray  type="Float64"  NumberOfComponents="3"  format="ascii">0 -5 0  8 -5 0  30 -5 0  40 -5 0  40 5 0  30 5 0  8 5 0  0 5 0  8 -2.5 0  15 -2.5 0  30 -2.5 0  30 2.5 0  15 2.5 0  8 2.5 0  10 0.5 0  10 -0.5 0  0 0 0  0.4210526315780956 -5 0  0.8421052631563433 -5 0  1.263157894734281 -5 0  1.684210526311999 -5 0  2.105263157889717 -5 0  2.526315789467435 -5 0  2.947368421045153 -5 0  3.368421052622872 -5 0  3.78947368420059 -5 0  4.210526315779479 -5 0  4.631578947359537 -5 0  5.052631578939595 -5 0  5.473684210519653 -5 0  5.89473684209971 -5 0  6.315789473679768 -5 0  6.736842105259826 -5 0  7.157894736839884 -5 0  7.578947368419942 -5 0  8.407407407405314 -5 0  8.814814814810628 -5 0  9.222222222215942 -5 0  9.629629629621256 -5 0  10.03703703702657 -5 0  10.44444444443188 -5 0  10.8518518518372 -5 0  11.25925925924251 -5 0  11.66666666664783 -5 0  12.07407407405314 -5 0  12.48148148145846 -5 0  12.88888888886377 -5 0  13.29629629626908 -5 0  13.7037037036744 -5 0  14.11111111107971 -5 0  14.51851851848502 -5 0  14.92592592589034 -5 0  15.33333333329565 -5 0  15.74074074070096 -5 0  16.14814814810754 -5 0  16.55555555551614 -5 0  16.96296296292474 -5 0  17.37037037033335 -5 0  17.77777777774195 -5 0  18.18518518515056 -5 0  18.59259259255916 -5 0  18.99999999996776 -5 0  19.40740740737636 -5 0  19.81481481478497 -5 0  20.22222222219357 -5 0  20.62962962960217 -5 0  21.03703703701077 -5 0  21.44444444441937 -5 0  21.85185185182797 -5 0  22.25925925923657 -5 0  22.66666666664518 -5 0  23.07407407405378 -5 0  23.48148148146238 -5 0  23.88888888887098 -5 0  24.29629629627958 -5 0  24.70370370368818 -5 0  25.11111111109678 -5 0  25.51851851850539 -5 0  25.92592592591399 -5 0  26.33333333332259 -5 0  26.74074074073119 -5 0  27.14814814813979 -5 0  27.55555555554839 -5 0  27.96296296295699 -5 0  28.3703703703656 -5 0  28.7777777777742 -5 0  29.1851851851828 -5 0  29.5925925925914 -5 0  30.41666666667852 -5 0  30.83333333335704 -5 0  31.25000000003556 -5 0  31.66666666671408 -5 0  32.08333333338936 -5 0  32.50000000005308 -5 0  32.9166666667168 -5 0  33.33333333338052 -5 0  33.75000000004424 -5 0  34.16666666670795 -5 0  34.58333333337167 -5 0  35.00000000003539 -5 0  35.41666666669911 -5 0  35.83333333336282 -5 0  36.25000000002654 -5 0  36.66666666669026 -5 0  37.08333333335398 -5 0  37.50000000001769 -5 0  37.91666666668141 -5 0  38.33333333334513 -5 0  38.75000000000885 -5 0  39.16666666667257 -5 0  39.58333333333628 -5 0  40 -4.583333333332821 0  40 -4.166666666665642 0  40 -3.74999999999855 0  40 -3.333333333333135 0  40 -2.916666666667806 0  40 -2.500000000002478 0  40 -2.083333333337148 0  40 -1.666666666671818 0  40 -1.250000000006488 0  40 -0.8333333333405228 0  40 -0.4166666666733416 0  40 -6.163070054299169e-12 0  40 0.4166666666610173 0  40 0.8333333333281976 0  40 1.249999999995378 0  40 1.666666666662558 0  40 2.083333333329739 0  40 2.499999999996919 0  40 2.916666666664099 0  40 3.33333333333128 0  40 3.74999999999846 0  40 4.166666666665641 0  40 4.583333333332821 0  39.58333333333628 5 0  39.16666666667256 5 0  38.75000000000885 5 0  38.33333333334513 5 0  37.91666666668141 5 0  37.50000000001769 5 0  37.08333333335398 5 0  36.66666666669025 5 0  36.25000000002654 5 0  35.83333333336282 5 0  35.41666666669911 5 0  35.00000000003539 5 0  34.58333333337167 5 0  34.16666666670795 5 0  33.75000000004424 5 0  33.33333333338052 5 0  32.9166666667168 5 0  32.50000000005308 5 0  32.08333333338936 5 0  31.66666666671408 5 0  31.25000000003556 5 0  30.83333333335704 5 0  30.41666666667852 5 0  29.59259259259259 5 0  29.18518518518519 5 0  28.77777777777778 5 0  28.37037037037037 5 0  27.96296296296296 5 0  27.55555555555556 5 0  27.14814814814815 5 0  26.74074074074074 5 0  26.33333333333333 5 0  25.92592592592593 5 0  25.51851851851852 5 0  25.11111111111111 5 0  24.7037037037037 5 0  24.2962962962963 5 0  23.88888888888889 5 0  23.48148148148148 5 0  23.07407407407408 5 0  22.66666666666667 5 0  22.25925925925926 5 0  21.85185185185185 5 0  21.44444444444445 5 0  21.03703703703704 5 0  20.62962962962963 5 0  20.22222222222222 5 0  19.81481481481482 5 0  19.40740740740741 5 0  19 5 0  18.5925925925926 5 0  18.18518518518519 5 0  17.77777777777778 5 0  17.37037037037037 5 0  16.96296296296296 5 0  16.55555555555556 5 0  16.14814814814815 5 0  15.74074074074074 5 0  15.33333333333333 5 0  14.92592592592593 5 0  14.51851851851852 5 0  14.11111111111111 5 0  13.70370370370371 5 0  13.2962962962963 5 0  12.88888888888889 5 0  12.48148148148148 5 0  12.07407407407408 5 0  11.66666666666667 5 0  11.25925925925926 5 0  10.85185185185185 5 0  10.44444444444445 5 0  10.03703703703704 5 0  9.629629629629633 5 0  9.222222222222221 5 0  8.814814814814817 5 0  8.407407407407408 5 0  7.5789473684193 5 0  7.157894736838599 5 0  6.73684210526082 5 0  6.315789473684795 5 0  5.894736842108769 5 0  5.473684210532742 5 0  5.052631578956715 5 0  4.631578947380689 5 0  4.210526315804662 5 0  3.789473684226299 5 0  3.368421052645599 5 0  2.947368421064898 5 0  2.526315789484198 5 0  2.105263157903499 5 0  1.6842105263228 5 0  1.2631578947421 5 0  0.8421052631613994 5 0  0.4210526315806993 5 0  0 4.545454545454545 0  0 4.09090909090909 0  0 3.636363636363634 0  0 3.18181818181818 0  0 2.727272727272726 0  0 2.272727272727271 0  0 1.818181818181817 0  0 1.363636363636363 0  0 0.9090909090909092 0  0 0.454545454545455 0  0 -0.4545454545450807 0  0 -0.9090909090895867 0  0 -1.363636363633713 0  0 -1.818181818177841 0  0 -2.272727272723127 0  0 -2.727272727269273 0  0 -3.181818181815419 0  0 -3.636363636361564 0  0 -4.090909090907709 0  0 -4.545454545453855 0  8 -4.499999999999999 0  8 -3.999999999999999 0  8 -3.499999999999999 0  8 -3 0  8.137254901963859 -2.5 0  8.274509803926303 -2.5 0  8.411764705886863 -2.5 0  8.549019607849138 -2.5 0  8.686274509809513 -2.5 0  8.82352941176989 -2.5 0  8.960784313730265 -2.5 0  9.098039215690642 -2.5 0  9.235294117651017 -2.5 0  9.372549019611395 -2.5 0  9.50980392157177 -2.5 0  9.647058823532147 -2.5 0  9.784313725492522 -2.5 0  9.921568627452897 -2.5 0  10.05882352941327 -2.5 0  10.19607843137365 -2.5 0  10.33333333333402 -2.5 0  10.4705882352944 -2.5 0  10.60784313725478 -2.5 0  10.74509803921515 -2.5 0  10.88235294117553 -2.5 0  11.0196078431359 -2.5 0  11.15686274509628 -2.5 0  11.29411764705665 -2.5 0  11.43137254901703 -2.5 0  11.56862745097915 -2.5 0  11.70588235294301 -2.5 0  11.84313725490686 -2.5 0  11.98039215687072 -2.5 0  12.11764705883209 -2.5 0  12.25490196079247 -2.5 0  12.39215686275285 -2.5 0  12.52941176471322 -2.5 0  12.6666666666736 -2.5 0  12.80392156863397 -2.5 0  12.94117647059435 -2.5 0  13.07843137255473 -2.5 0  13.2156862745151 -2.5 0  13.35294117647548 -2.5 0  13.49019607843586 -2.5 0  13.62745098039623 -2.5 0  13.76470588235661 -2.5 0  13.90196078431699 -2.5 0  14.03921568627736 -2.5 0  14.17647058823774 -2.5 0  14.31372549019812 -2.5 0  14.45098039215849 -2.5 0  14.58823529411887 -2.5 0  14.72549019607925 -2.5 0  14.86274509803962 -2.5 0  15.20270270270254 -2.5 0  15.40540540540509 -2.5 0  15.60810810810763 -2.5 0  15.81081081081017 -2.5 0  16.01351351351227 -2.5 0  16.21621621621265 -2.5 0  16.41891891891279 -2.5 0  16.62162162161294 -2.5 0  16.82432432431308 -2.5 0  17.02702702701322 -2.5 0  17.22972972971337 -2.5 0  17.43243243241351 -2.5 0  17.63513513511365 -2.5 0  17.83783783781379 -2.5 0  18.04054054051394 -2.5 0  18.24324324321408 -2.5 0  18.44594594591422 -2.5 0  18.64864864861436 -2.5 0  18.85135135131451 -2.5 0  19.05405405401465 -2.5 0  19.25675675671479 -2.5 0  19.45945945941494 -2.5 0  19.66216216211508 -2.5 0  19.86486486481522 -2.5 0  20.06756756751536 -2.5 0  20.27027027021551 -2.5 0  20.47297297291565 -2.5 0  20.6756756756158 -2.5 0  20.87837837831594 -2.5 0  21.08108108101608 -2.5 0  21.28378378371622 -2.5 0  21.48648648641637 -2.5 0  21.68918918911651 -2.5 0  21.89189189181666 -2.5 0  22.0945945945168 -2.5 0  22.29729729721694 -2.5 0  22.49999999991778 -2.5 0  22.70270270262203 -2.5 0  22.90540540532697 -2.5 0  23.10810810803191 -2.5 0  23.31081081073686 -2.5 0  23.5135135134418 -2.5 0  23.71621621614674 -2.5 0  23.91891891885169 -2.5 0  24.12162162155663 -2.5 0  24.32432432426158 -2.5 0  24.52702702696652 -2.5 0  24.72972972967146 -2.5 0  24.93243243237641 -2.5 0  25.13513513508135 -2.5 0  25.3378378377863 -2.5 0  25.54054054049124 -2.5 0  25.74324324319618 -2.5 0  25.94594594590112 -2.5 0  26.14864864860607 -2.5 0  26.35135135131101 -2.5 0  26.55405405401596 -2.5 0  26.7567567567209 -2.5 0  26.95945945942584 -2.5 0  27.16216216213079 -2.5 0  27.36486486483573 -2.5 0  27.56756756754068 -2.5 0  27.77027027024562 -2.5 0  27.97297297295056 -2.5 0  28.1756756756555 -2.5 0  28.37837837836045 -2.5 0  28.5810810810654 -2.5 0  28.78378378377034 -2.5 0  28.98648648647528 -2.5 0  29.18918918918023 -2.5 0  29.39189189188517 -2.5 0  29.59459459459011 -2.5 0  29.79729729729506 -2.5 0  30 -3.000000000000001 0  30 -3.500000000000001 0  30 -4.000000000000001 0  30 -4.5 0  8 4.499999999999999 0  8 3.999999999999999 0  8 3.499999999999999 0  8 3 0  8.137254901963859 2.5 0  8.274509803926303 2.5 0  8.411764705886863 2.5 0  8.549019607849138 2.5 0  8.686274509809513 2.5 0  8.82352941176989 2.5 0  8.960784313730265 2.5 0  9.098039215690642 2.5 0  9.235294117651017 2.5 0  9.372549019611395 2.5 0  9.50980392157177 2.5 0  9.647058823532147 2.5 0  9.784313725492522 2.5 0  9.921568627452897 2.5 0  10.05882352941327 2.5 0  10.19607843137365 2.5 0  10.33333333333402 2.5 0  10.4705882352944 2.5 0  10.60784313725478 2.5 0  10.74509803921515 2.5 0  10.88235294117553 2.5 0  11.0196078431359 2.5 0  11.15686274509628 2.5 0  11.29411764705665 2.5 0  11.43137254901703 2.5 0  11.56862745097915 2.5 0  11.70588235294301 2.5 0  11.84313725490686 2.5 0  11.98039215687072 2.5 0  12.11764705883209 2.5 0  12.25490196079247 2.5 0  1
[...]
<PointData  Vectors="f_17"> 
<DataArray  type="Float64"  Name="f_17"  NumberOfComponents="3" format="ascii">1.0000001332962942e+00 0.0000000000000000e+00 0.0000000000000000e+00  1.0388435137086687e+00 0.0000000000000000e+00 0.0000000000000000e+00  1.0586805586799097e+00 0.0000000000000000e+00 0.0000000000000000e+00  1.0832398518740796e+00 0.0000000000000000e+00 0.0000000000000000e+00  1.0816549289391404e+00 0.0000000000000000e+00 0.0000000000000000e+00  1.0556706586386015e+00 0.0000000000000000e+00 0.0000000000000000e+00  1.0420541050003975e+00 0.0000000000000000e+00 0.0000000000000000e+00  1.0000001332962942e+00 0.0000000000000000e+00 0.0000000000000000e+00  1.0180382513415949e+00 -4.9403141169769065e-02 0.0000000000000000e+00  9.9988641098665909e-01 6.0419416915198289e-02 0.0000000000000000e+00  1.0561823372754497e+00 7.9261285974802503e-02 0.0000000000000000e+00  1.0757117195762613e+00 9.0037421047867106e-02 0.0000000000000000e+00  1.1332839722672337e+00 1.7447398239506286e-02 0.0000000000000000e+00  1.0247392579362042e+00 5.2232758187611611e-02 0.0000000000000000e+00  0.0000000000000000e+00 0.0000000000000000e+00 0.0000000000000000e+00  0.0000000000000000e+00 0.0000000000000000e+00 0.0000000000000000e+00  1.0000001332962942e+00 0.0000000000000000e+00 0.0000000000000000e+00  9.9929652627319310e-01 0.0000000000000000e+00 0.0000000000000000e+00  9.9872570948505612e-01 0.0000000000000000e+00 0.0000000000000000e+00  1.0007339162925977e+00 0.0000000000000000e+00 0.0000000000000000e+00  1.0004617387850434e+00 0.0000000000000000e+00 0.0000000000000000e+00  1.0012958428776393e+00 0.0000000000000000e+00 0.0000000000000000e+00  1.0014370921743048e+00 0.0000000000000000e+00 0.0000000000000000e+00  1.0015278326789876e+00 0.0000000000000000e+00 0.0000000000000000e+00  1.0021385239306919e+00 0.0000000000000000e+00 0.0000000000000000e+00  1.0031401160057387e+00 0.0000000000000000e+00 0.0000000000000000e+00  1.0040764345346014e+00 0.0000000000000000e+00 0.0000000000000000e+00  1.0053570765498534e+00 0.0000000000000000e+00 0.0000000000000000e+00  1.0074389804822845e+00 0.0000000000000000e+00 0.0000000000000000e+00  1.0096246614675717e+00 0.0000000000000000e+00 0.0000000000000000e+00  1.0133877188168472e+00 0.0000000000000000e+00 0.0000000000000000e+00  1.0149385429742201e+00 0.0000000000000000e+00 0.0000000000000000e+00  1.0192874533410041e+00 0.0000000000000000e+00 0.0000000000000000e+00  1.0258170663384121e+00 0.0000000000000000e+00 0.0000000000000000e+00  1.0310474170513586e+00 0.0000000000000000e+00 0.0000000000000000e+00  1.0467978822306527e+00 0.0000000000000000e+00 0.0000000000000000e+00  1.0553299872552950e+00 0.0000000000000000e+00 0.0000000000000000e+00  1.0634812328110348e+00 0.0000000000000000e+00 0.0000000000000000e+00  1.0723004155223645e+00 0.0000000000000000e+00 0.0000000000000000e+00  1.0798071736132280e+00 0.0000000000000000e+00 0.0000000000000000e+00  1.0867304709971151e+00 0.0000000000000000e+00 0.0000000000000000e+00  1.0931739958833420e+00 0.0000000000000000e+00 0.0000000000000000e+00  1.0967809589853843e+00 0.0000000000000000e+00 0.0000000000000000e+00  1.0990756165697795e+00 0.0000000000000000e+00 0.0000000000000000e+00  1.0989778873607703e+00 0.0000000000000000e+00 0.0000000000000000e+00  1.0970831725455978e+00 0.0000000000000000e+00 0.0000000000000000e+00  1.0920656342344217e+00 0.0000000000000000e+00 0.0000000000000000e+00  1.0863544862411247e+00 0.0000000000000000e+00 0.0000000000000000e+00  1.0791595526841993e+00 0.0000000000000000e+00 0.0000000000000000e+00  1.0714009440476859e+00 0.0000000000000000e+00 0.0000000000000000e+00  1.0643992326433551e+00 0.0000000000000000e+00 0.0000000000000000e+00  1.0584745205619599e+00 0.0000000000000000e+00 0.0000000000000000e+00  1.0545535325302433e+00 0.0000000000000000e+00 0.0000000000000000e+00  1.0525398990014545e+00 0.0000000000000000e+00 0.0000000000000000e+00  1.0524682087944603e+00 0.0000000000000000e+00 0.0000000000000000e+00  1.0552590384210534e+00 0.0000000000000000e+00 0.0000000000000000e+00  1.0592797432508834e+00 0.0000000000000000e+00 0.0000000000000000e+00  1.0619473245851181e+00 0.0000000000000000e+00 0.0000000000000000e+00  1.0641827627719245e+00 0.0000000000000000e+00 0.0000000000000000e+00  1.0643224282486778e+00 0.0000000000000000e+00 0.0000000000000000e+00  1.0621103121610140e+00 0.0000000000000000e+00 0.0000000000000000e+00  1.0584063971295889e+00 0.0000000000000000e+00 0.0000000000000000e+00  1.0530267845011194e+00 0.0000000000000000e+00 0.0000000000000000e+00  1.0475960426808888e+00 0.0000000000000000e+00 0.0000000000000000e+00  1.0433459435362504e+00 0.0000000000000000e+00 0.0000000000000000e+00  1.0401523584554091e+00 0.0000000000000000e+00 0.0000000000000000e+00  1.0390880215405289e+00 0.0000000000000000e+00 0.0000000000000000e+00  1.0419992096276831e+00 0.0000000000000000e+00 0.0000000000000000e+00  1.0458207573538310e+00 0.0000000000000000e+00 0.0000000000000000e+00  1.0506107026098501e+00 0.0000000000000000e+00 0.0000000000000000e+00  1.0565705312071847e+00 0.0000000000000000e+00 0.0000000000000000e+00  1.0605741325259326e+00 0.0000000000000000e+00 0.0000000000000000e+00  1.0624740753373654e+00 0.0000000000000000e+00 0.0000000000000000e+00  1.0634279727909028e+00 0.0000000000000000e+00 0.0000000000000000e+00  1.0613109814241513e+00 0.0000000000000000e+00 0.0000000000000000e+00  1.0574545165101350e+00 0.0000000000000000e+00 0.0000000000000000e+00  1.0538198147555382e+00 0.0000000000000000e+00 0.0000000000000000e+00  1.0499619724607328e+00 0.0000000000000000e+00 0.0000000000000000e+00  1.0474914549394498e+00 0.0000000000000000e+00 0.0000000000000000e+00  1.0475921440240028e+00 0.0000000000000000e+00 0.0000000000000000e+00  1.0487817027748159e+00 0.0000000000000000e+00 0.0000000000000000e+00  1.0513378616308813e+00 0.0000000000000000e+00 0.0000000000000000e+00  1.0574236245540245e+00 0.0000000000000000e+00 0.0000000000000000e+00  1.0613873386064898e+00 0.0000000000000000e+00 0.0000000000000000e+00  1.0628322945804178e+00 0.0000000000000000e+00 0.0000000000000000e+00  1.0636255299633153e+00 0.0000000000000000e+00 0.0000000000000000e+00  1.0640409024772555e+00 0.0000000000000000e+00 0.0000000000000000e+00  1.0616450563221986e+00 0.0000000000000000e+00 0.0000000000000000e+00  1.0550212997726180e+00 0.0000000000000000e+00 0.0000000000000000e+00  1.0514753285224987e+00 0.0000000000000000e+00 0.0000000000000000e+00  1.0495057719263845e+00 0.0000000000000000e+00 0.0000000000000000e+00  1.0503042543461825e+00 0.0000000000000000e+00 0.0000000000000000e+00  1.0531529505737407e+00 0.0000000000000000e+00 0.0000000000000000e+00  1.0566985318945044e+00 0.0000000000000000e+00 0.0000000000000000e+00  1.0608616526826842e+00 0.0000000000000000e+00 0.0000000000000000e+00  1.0645879249627994e+00 0.0000000000000000e+00 0.0000000000000000e+00  1.0671109175108036e+00 0.0000000000000000e+00 0.0000000000000000e+00  1.0672572101052424e+00 0.0000000000000000e+00 0.0000000000000000e+00  1.0661844640547256e+00 0.0000000000000000e+00 0.0000000000000000e+00  1.0635180570855480e+00 0.0000000000000000e+00 0.0000000000000000e+00  1.0601443359382634e+00 0.0000000000000000e+00 0.0000000000000000e+00  1.0577408700510100e+00 0.0000000000000000e+00 0.0000000000000000e+00  1.0566128353288304e+00 0.0000000000000000e+00 0.0000000000000000e+00  1.0579533371462158e+00 0.0000000000000000e+00 0.0000000000000000e+00  1.0605450900600544e+00 0.0000000000000000e+00 0.0000000000000000e+00  1.0653551421287264e+00 0.0000000000000000e+00 0.0000000000000000e+00  1.0707370121997646e+00 0.0000000000000000e+00 0.0000000000000000e+00  1.0766453002854737e+00 0.0000000000000000e+00 0.0000000000000000e+00  1.0807398325948538e+00 0.0000000000000000e+00 0.0000000000000000e+00  1.0836640752609619e+00 0.0000000000000000e+00 0.0000000000000000e+00  1.0837610281501286e+00 0.0000000000000000e+00 0.0000000000000000e+00  1.0843443265008597e+00 1.6193023926631520e-03 0.0000000000000000e+00  1.0869838634307929e+00 4.1669312677248731e-03 0.0000000000000000e+00  1.0917470156334828e+00 9.1058922445672041e-03 0.0000000000000000e+00  1.0983731925673819e+00 1.9083367507000459e-02 0.0000000000000000e+00  1.1094814276124279e+00 3.8702647024305460e-02 0.0000000000000000e+00  1.1156894637317694e+00 6.9957713367893554e-02 0.0000000000000000e+00  1.1010724764512521e+00 1.1898081200014922e-01 0.0000000000000000e+00  1.0511740457098744e+00 1.7345936901742073e-01 0.0000000000000000e+00  9.6537103790125112e-01 2.2657435643000357e-01 0.0000000000000000e+00  8.6539412077007949e-01 2.5686753566813614e-01 0.0000000000000000e+00  7.8218275587854513e-01 2.7450204207477463e-01 0.0000000000000000e+00  7.3845941847161112e-01 2.8155628647996683e-01 0.0000000000000000e+00  7.4651789108777600e-01 2.8674919161176943e-01 0.0000000000000000e+00  7.9958202938920087e-01 2.8921804482513225e-01 0.0000000000000000e+00  8.8147236549235186e-01 2.7275997432186638e-01 0.0000000000000000e+00  9.6189955098265856e-01 2.3152272700509943e-01 0.0000000000000000e+00  1.0167466014301159e+00 1.7559502399118623e-01 0.0000000000000000e+00  1.0440265352259541e+00 1.1742768229276399e-01 0.0000000000000000e+00  1.0589633271089929e+00 7.6842795637760850e-02 0.0000000000000000e+00  1.0709205461142166e+00 4.9057483628437273e-02 0.0000000000000000e+00  1.0776183309897567e+00 3.1180761290163280e-02 0.0000000000000000e+00  1.0811511124186317e+00 1.8378719108132970e-02 0.0000000000000000e+00  1.0819372892114325e+00 8.3920964163037553e-03 0.0000000000000000e+00  1.0741214045734788e+00 0.0000000000000000e+00 0.0000000000000000e+00  1.0687620236819022e+00 0.0000000000000000e+00 0.0000000000000000e+00  1.0658078876981845e+00 0.0000000000000000e+00 0.0000000000000000e+00  1.0656344527288595e+00 0.0000000000000000e+00 0.0000000000000000e+00  1.0664391056385452e+00 0.0000000000000000e+00 0.0000000000000000e+00  1.0683540344537514e+00 0.0000000000000000e+00 0.0000000000000000e+00  1.0701953863011600e+00 0.0000000000000000e+00 0.0000000000000000e+00  1.0710539025107788e+00 0.0000000000000000e+00 0.0000000000000000e+00  1.0695196851028337e+00 0.0000000000000000e+00 0.0000000000000000e+00  1.0666590332320671e+00 0.0000000000000000e+00 0.0000000000000000e+00  1.0624003037550578e+00 0.0000000000000000e+00 0.0000000000000000e+00  1.0576342507277132e+00 0.0000000000000000e+00 0.0000000000000000e+00  1.0535257967066582e+00 0.0000000000000000e+00 0.0000000000000000e+00  1.0516342356755022e+00 0.0000000000000000e+00 0.0000000000000000e+00  1.0509421442969447e+00 0.0000000000000000e+00 0.0000000000000000e+00  1.0532051284828978e+00 0.0000000000000000e+00 0.0000000000000000e+00  1.0557304584836216e+00 0.0000000000000000e+00 0.0000000000000000e+00  1.0594328228721173e+00 0.0000000000000000e+00 0.0000000000000000e+00  1.0624617990850131e+00 0.0000000000000000e+00 0.0000000000000000e+00  1.0648010233795375e+00 0.0000000000000000e+00 0.0000000000000000e+00  1.0649913470574388e+00 0.0000000000000000e+00 0.0000000000000000e+00  1.0627949301821780e+00 0.0000000000000000e+00 0.0000000000000000e+00  1.0597384476311171e+00 0.0000000000000000e+00 0.0000000000000000e+00  1.0513529583230847e+00 0.0000000000000000e+00 0.0000000000000000e+00  1.0487499264294422e+00 0.0000000000000000e+00 0.0000000000000000e+00  1.0468937834723424e+00 0.0000000000000000e+00 0.0000000000000000e+00  1.0484917685997817e+00 0.0000000000000000e+00 0.0000000000000000e+00  1.0527219134192649e+00 0.0000000000000000e+00 0.0000000000000000e+00  1.0567542494710924e+00 0.0000000000000000e+00 0.0000000000000000e+00  1.0591030354539075e+00 0.0000000000000000e+00 0.0000000000000000e+00  1.0627453435649201e+00 0.0000000000000000e+00 0.0000000000000000e+00  1.0644533204710198e+00 0.0000000000000000e+00 0.0000000000000000e+00  1.0631569793615687e+00 0.0000000000000000e+00 0.0000000000000000e+00  1.0603778206819023e+00 0.0000000000000000e+00 0.0000000000000000e+00  1.0560926223223968e+00 0.0000000000000000e+00 0.0000000000000000e+00  1.0506013843354514e+00 0.0000000000000000e+00 0.0000000000000000e+00  1.0465307155002554e+00 0.0000000000000000e+00 0.0000000000000000e+00  1.0438687669012934e+00 0.0000000000000000e+00 0.0000000000000000e+00  1.0423476438810686e+00 0.0000000000000000e+00 0.0000000000000000e+00  1.0443358217850833e+00 0.0000000000000000e+00 0.0000000000000000e+00  1.0480651735477471e+00 0.0000000000000000e+00 0.0000000000000000e+00  1.0520139382869664e+00 0.0000000000000000e+00 0.0000000000000000e+00  1.0568866603850877e+00 0.0000000000000000e+00 0.0000000000000000e+00  1.0605458993898631e+00 0.0000000000000000e+00 0.0000000000000000e+00  1.0612250890406900e+00 0.0000000000000000e+00 0.0000000000000000e+00  1.0608312253354999e+00 0.0000000000000000e+00 0.0000000000000000e+00  1.0580777788185856e+00 0.0000000000000000e+00 0.0000000000000000e+00  1.0527638844032601e+00 0.0000000000000000e+00 0.0000000000000000e+00  1.0473895624722436e+00 0.0000000000000000e+00 0.0000000000000000e+00  1.0426073384705723e+00 0.0000000000000000e+00 0.0000000000000000e+00  1.0391454602234111e+00 0.0000000000000000e+00 0.0000000000000000e+00  1.0383808439255302e+00 0.0000000000000000e+00 0.0000000000000000e+00  1.0402211429634622e+00 0.0000000000000000e+00 0.0000000000000000e+00  1.0440252897704692e+00 0.0000000000000000e+00 0.0000000000000000e+00  1.0503015240728590e+00 0.0000000000000000e+00 0.0000000000000000e+00  1.0561574362249828e+00 0.0000000000000000e+00 0.0000000000000000e+00  1.0623002297746624e+00 0.0000000000000000e+00 0.0000000000000000e+00  1.0682620541829679e+00 0.0000000000000000e+00 0.0000000000000000e+00  1.0726205918086829e+00 0.0000000000000000e+00 0.0000000000000000e+00  1.0749181119782776e+00 0.0000000000000000e+00 0.0000000000000000e+00  1.0754951367144274e+00 0.0000000000000000e+00 0.0000000000000000e+00  1.0757842586835484e+00 0.0000000000000000e+00 0.0000000000000000e+00  1.0767806241065556e+00 0.0000000000000000e+00 0.0000000000000000e+00  1.0774338489467363e+00 0.0000000000000000e+00 0.0000000000000000e+00  1.0786382874766498e+00 0.0000000000000000e+00 0.0000000000000000e+00  1.0818330098996070e+00 0.0000000000000000e+00 0.0000000000000000e+00  1.0835492531011759e+00 0.0000000000000000e+00 0.0000000000000000e+00  1.0857077365348617e+00 0.0000000000000000e+00 0.0000000000000000e+00  1.0865035672823515e+00 0.0000000000000000e+00 0.0000000000000000e+00  1.0851635855823933e+00 0.0000000000000000e+00 0.0000000000000000e+00  1.0822587481351187e+00 0.0000000000000000e+00 0.0000000000000000e+00  1.0780015381202261e+00 0.0000000000000000e+00 0.0000000000000000e+00  1.0723023736878905e+00 0.0000000000000000e+00 0.0000000000000000e+00  1.0648303446347429e+00 0.0000000000000000e+00 0.0000000000000000e+00  1.0577489878974791e+00 0.0000000000000000e+00 0.0000000000000000e+00  1.0498006613453856e+00 0.0000000000000000e+00 0.0000000000000000e+00  1.0344664013365741e+00 0.0000000000000000e+00 0.0000000000000000e+00  1.0278218870992473e+00 0.0000000000000000e+00 0.0000000000000000e+00  1.0225431985243068e+00 0.0000000000000000e+00 0.0000000000000000e+00  1.0177975058383391e+00 0.0000000000000000e+00 0.0000000000000000e+00  1.0139199244133048e+00 0.0000000000000000e+00 0.0000000000000000e+00  1.0108505160065706e+00 0.0000000000000000e+00 0.0000000000000000e+00  1.0084948415847903e+00 0.0000000000000000e+00 0.0000000000000000e+00  1.0062010191567210e+00 0.0000000000000000e+00 0.0000000000000000e+00  1.0045679525707163e+00 0.0000000000000000e+00 0.0000000000000000e+00  1.0033894043524727e+00 0.0000000000000000e+00 0.0000000000000000e+00  1.0020390373242456e+00 0.0000000000000000e+00 0.0000000000000000e+00  1.0017263412251070e+00 0.0000000000000000e+00 0.0000000000000000e+00  1.0005193847453115e+00 0.0000000000000000e+00 0.0000000000000000e+00  1.0003779563877682e+00 0.0000000000000000e+00 0.0000000000000000e+00  9.9989038426469012e-01 0.0000000000000000e+00 0.0000000000000000e+00  1.0005149714250539e+00 0.0000000000000000e+00 0.0000000000000000e+00  1.0002506599606662e+00 0.0000000000000000e+00 0.0000000000000000e+00  9.9979610863004909e-01 0.0000000000000000e+00 0.0000000000000000e+00  1.0000001332962942e+00 0.0000000000000000e+00 0.0000000000000000e+00  1.0000001332962942e+00 0.0000000000000000e+00 0.0000000000000000e+00  1.0000001332962942e+00 0.0000000000000000e+00 0.0000000000000000e+00  1.0000001332962942e+00 0.0000000000000000e+00 0.0000000000000000e+00  1.0000001332962942e+00 0.0000000000000000e+00 0.0000000000000000e+00  1.0000001332962942e+00 0.0000000000000000e+00 0.0000000000000000e+00  1.0000001332962942e+00 0.0000000000000000e+00 0.0000000000000000e+00  1.0000001332962942e+00 0.0000000000000000e+00 0.0000000000000000e+00  1.0000001332962942e+00 0.0000000000000000e+00 0.0000000000000000e+00  1.0000001332962942e+00 0.0000000000000000e+00 0.0000000000000000e+00  1.0000001332962942e+00 0.0000000000000000e+00 0.0000000000000000e+00  1.0000001332962942e+00 0.0000000000000000e+00 0.0000000000000000e+00  1.0000001332962942e+00 0.0000000000000000e+00 0.0000000000000000e+00  1.0000001332962942e+00 0.0000000000000000e+00 0.0000000000000000e+00  1.0000001332962942e+00 0.0000000000000000e+00 0.0000000000000000e+00  1.0000001332962942e+00 0.0000000000000000e+00 0.0000000000000000e+00  1.0000001332962942e+00 0.0000000000000000e+00 0.0000000000000000e+00  1.0000001332962942e+00 0.0000000000000000e+00 0.0000000000000000e+00  1.0000001332962942e+00 0.0000000000000000e+00 0.0000000000000000e+00  1.0000001332962942e+00 0.0000000000000000e+00 0.0000000000000000e+00  1.0381826106543968e+00 -9.2286050532488246e-03 0.0000000000000000e+00  1.0350391841166593e+00 -1.8609570347341536e-02 0.0000000000000000e+00  1.0326022080692312e+00 -2.8649973311832964e-02 0.0000000000000000e+00  1.0266581302608349e+00 -3.9003880693188706e-02 0.0000000000000000e+00  1.0205205129131769e+00 -5.3062689518654810e-02 0.0000000000000000e+00  1.0247240182348067e+00 -5.6402462699094547e-02 0.0000000000000000e+00  1.0285186894235330e+00 -5.9826922966686187e-02 0.0000000000000000e+00  1.0332964240965554e+00 -6.2961103456242534e-02 0.0000000000000000e+00  1.0383054162843885e+00 -6.5965070926689587e-02 0.0000000000000000e+00  1.0438976327476790e+00 -6.8566565623183223e-02 0.0000000000000000e+00  1.0500258033564172e+00 -7.0842360074788446e-02 0.0000000000000000e+00  1.0565238383827473e+00 -7.2493952323496424e-02 0.0000000000000000e+00  1.0634832623519130e+00 -7.3629578708898399e-02 0.0000000000000000e+00  1.0704746022055247e+00 -7.3935734394493330e-02 0.0000000000000000e+00  1.0777138669903041e+00 -7.3673260814418357e-02 0.0000000000000000e+00  1.0848729449206262e+00 -7.2753111845311288e-02 0.0000000000000000e+00  1.0920447935463384e+00 -7.0869290536900942e-02 0.0000000000000000e+00  1.0987589869997205e+00 -6.8198690875313689e-02 0.0000000000000000e+00  1.1050847355618993e+00 -6.5045777593450801e-02 0.0000000000000000e+00  1.1109068364765029e+00 -6.1310842249498433e-02 0.0000000000000000e+00  1.1160851675389185e+00 -5.7154709667413844e-02 0.0000000000000000e+00  1.1205956096231351e+00 -5.2675101398231707e-02 0.0000000000000000e+00  1.1245592861427853e+00 -4.8126591816884855e-02 0.0000000000000000e+00  1.1279235455896037e+00 -4.3374497999056988e-02 0.0000000000000000e+00  1.1308076228067394e+00 -3.8900874686238533e-02 0.0000000000000000e+00  1.1332773347719334e+00 -3.4248594185809791e-02 0.0000000000000000e+00  1.1354286135157372e+00 -2.9761112907387956e-02 0.0000000000000000e+00  1.1374721410633379e+00 -2.5470884205406028e-02 0.0000000000000000e+00  1.1393810785521532e+00 -2.1231593716183616e-02 0.0000000000000000e+00  1.1412291977121130e+00 -1.6938389900776507e-02 0.0000000000000000e+00  1.1430532961475461e+00 -1.2411008944812896e-02 0.0000000000000000e+00  1.1448601890415453e+00 -7.6279656727445966e-03 0.0000000000000000e+00  1.1465031492489675e+00 -2.3923771866916676e-03 0.0000000000000000e+00  1.1479684636597185e+00 3.3687417197675608e-03 0.0000000000000000e+00  1.1490120347876749e+00 9.6829681648793881e-03 0.0000000000000000e+00  1.1494955191135825e+00 1.6600214715133375e-02 0.