<?xml version="1.0"?>
<VTKFile type="UnstructuredGrid"  version="0.1"  >
<UnstructuredGrid>
<Piece  NumberOfPoints="10199" NumberOfCells="20110">
<Points>
<DataArray  type="Float64"  NumberOfComponents="3"  format="ascii">0 -5 0  8 -5 0  30 -5 0  40 -5 0  40 5 0  30 5 0  8 5 0  0 5 0  8 -2.5 0  15 -2.5 0  30 -2.5 0  30 2.5 0  15 2.5 0  8 2.5 0  10 0.5 0  10 -0.5 0  0 0 0  0.4210526315780956 -5 0  0.8421052631563433 -5 0  1.263157894734281 -5 0  1.684210526311999 -5 0  2.105263157889717 -5 0  2.526315789467435 -5 0  2.947368421045153 -5 0  3.368421052622872 -5 0  3.78947368420059 -5 0  4.210526315779479 -5 0  4.631578947359537 -5 0  5.052631578939595 -5 0  5.473684210519653 -5 0  5.89473684209971 -5 0  6.315789473679768 -5 0  6.736842105259826 -5 0  7.157894736839884 -5 0  7.578947368419942 -5 0  8.407407407405314 -5 0  8.814814814810628 -5 0  9.222222222215942 -5 0  9.629629629621256 -5 0  10.03703703702657 -5 0  10.44444444443188 -5 0  10.8518518518372 -5 0  11.25925925924251 -5 0  11.66666666664783 -5 0  12.07407407405314 -5 0  12.48148148145846 -5 0  12.88888888886377 -5 0  13.29629629626908 -5 0  13.7037037036744 -5 0  14.11111111107971 -5 0  14.51851851848502 -5 0  14.92592592589034 -5 0  15.33333333329565 -5 0  15.74074074070096 -5 0  16.14814814810754 -5 0  16.55555555551614 -5 0  16.96296296292474 -5 0  17.37037037033335 -5 0  17.77777777774195 -5 0  18.18518518515056 -5 0  18.59259259255916 -5 0  18.99999999996776 -5 0  19.40740740737636 -5 0  19.81481481478497 -5 0  20.22222222219357 -5 0  20.62962962960217 -5 0  21.03703703701077 -5 0  21.44444444441937 -5 0  21.85185185182797 -5 0  22.25925925923657 -5 0  22.66666666664518 -5 0  23.07407407405378 -5 0  23.48148148146238 -5 0  23.88888888887098 -5 0  24.29629629627958 -5 0  24.70370370368818 -5 0  25.11111111109678 -5 0  25.51851851850539 -5 0  25.92592592591399 -5 0  26.33333333332259 -5 0  26.74074074073119 -5 0  27.14814814813979 -5 0  27.55555555554839 -5 0  27.96296296295699 -5 0  28.3703703703656 -5 0  28.7777777777742 -5 0  29.1851851851828 -5 0  29.5925925925914 -5 0  30.41666666667852 -5 0  30.83333333335704 -5 0  31.25000000003556 -5 0  31.66666666671408 -5 0  32.08333333338936 -5 0  32.50000000005308 -5 0  32.9166666667168 -5 0  33.33333333338052 -5 0  33.75000000004424 -5 0  34.16666666670795 -5 0  34.58333333337167 -5 0  35.00000000003539 -5 0  35.41666666669911 -5 0  35.83333333336282 -5 0  36.25000000002654 -5 0  36.66666666669026 -5 0  37.08333333335398 -5 0  37.50000000001769 -5 0  37.91666666668141 -5 0  38.33333333334513 -5 0  38.75000000000885 -5 0  39.16666666667257 -5 0  39.58333333333628 -5 0  40 -4.583333333332821 0  40 -4.166666666665642 0  40 -3.74999999999855 0  40 -3.333333333333135 0  40 -2.916666666667806 0  40 -2.500000000002478 0  40 -2.083333333337148 0  40 -1.666666666671818 0  40 -1.250000000006488 0  40 -0.8333333333405228 0  40 -0.4166666666733416 0  40 -6.163070054299169e-12 0  40 0.4166666666610173 0  40 0.8333333333281976 0  40 1.249999999995378 0  40 1.666666666662558 0  40 2.083333333329739 0  40 2.499999999996919 0  40 2.916666666664099 0  40 3.33333333333128 0  40 3.74999999999846 0  40 4.166666666665641 0  40 4.583333333332821 0  39.58333333333628 5 0  39.16666666667256 5 0  38.75000000000885 5 0  38.33333333334513 5 0  37.91666666668141 5 0  37.50000000001769 5 0  37.08333333335398 5 0  36.66666666669025 5 0  36.25000000002654 5 0  35.83333333336282 5 0  35.41666666669911 5 0  35.00000000003539 5 0  34.58333333337167 5 0  34.16666666670795 5 0  33.75000000004424 5 0  33.33333333338052 5 0  32.9166666667168 5 0  32.50000000005308 5 0  32.08333333338936 5 0  31.66666666671408 5 0  31.25000000003556 5 0  30.83333333335704 5 0  30.41666666667852 5 0  29.59259259259259 5 0  29.18518518518519 5 0  28.77777777777778 5 0  28.37037037037037 5 0  27.96296296296296 5 0  27.55555555555556 5 0  27.14814814814815 5 0  26.74074074074074 5 0  26.33333333333333 5 0  25.92592592592593 5 0  25.51851851851852 5 0  25.11111111111111 5 0  24.7037037037037 5 0  24.2962962962963 5 0  23.88888888888889 5 0  23.48148148148148 5 0  23.07407407407408 5 0  22.66666666666667 5 0  22.25925925925926 5 0  21.85185185185185 5 0  21.44444444444445 5 0  21.03703703703704 5 0  20.62962962962963 5 0  20.22222222222222 5 0  19.81481481481482 5 0  19.40740740740741 5 0  19 5 0  18.5925925925926 5 0  18.18518518518519 5 0  17.77777777777778 5 0  17.37037037037037 5 0  16.96296296296296 5 0  16.55555555555556 5 0  16.14814814814815 5 0  15.74074074074074 5 0  15.33333333333333 5 0  14.92592592592593 5 0  14.51851851851852 5 0  14.11111111111111 5 0  13.70370370370371 5 0  13.2962962962963 5 0  12.88888888888889 5 0  12.48148148148148 5 0  12.07407407407408 5 0  11.66666666666667 5 0  11.25925925925926 5 0  10.85185185185185 5 0  10.44444444444445 5 0  10.03703703703704 5 0  9.629629629629633 5 0  9.222222222222221 5 0  8.814814814814817 5 0  8.407407407407408 5 0  7.5789473684193 5 0  7.157894736838599 5 0  6.73684210526082 5 0  6.315789473684795 5 0  5.894736842108769 5 0  5.473684210532742 5 0  5.052631578956715 5 0  4.631578947380689 5 0  4.210526315804662 5 0  3.789473684226299 5 0  3.368421052645599 5 0  2.947368421064898 5 0  2.526315789484198 5 0  2.105263157903499 5 0  1.6842105263228 5 0  1.2631578947421 5 0  0.8421052631613994 5 0  0.4210526315806993 5 0  0 4.545454545454545 0  0 4.09090909090909 0  0 3.636363636363634 0  0 3.18181818181818 0  0 2.727272727272726 0  0 2.272727272727271 0  0 1.818181818181817 0  0 1.363636363636363 0  0 0.9090909090909092 0  0 0.454545454545455 0  0 -0.4545454545450807 0  0 -0.9090909090895867 0  0 -1.363636363633713 0  0 -1.818181818177841 0  0 -2.272727272723127 0  0 -2.727272727269273 0  0 -3.181818181815419 0  0 -3.636363636361564 0  0 -4.090909090907709 0  0 -4.545454545453855 0  8 -4.499999999999999 0  8 -3.999999999999999 0  8 -3.499999999999999 0  8 -3 0  8.137254901963859 -2.5 0  8.274509803926303 -2.5 0  8.411764705886863 -2.5 0  8.549019607849138 -2.5 0  8.686274509809513 -2.5 0  8.82352941176989 -2.5 0  8.960784313730265 -2.5 0  9.098039215690642 -2.5 0  9.235294117651017 -2.5 0  9.372549019611395 -2.5 0  9.50980392157177 -2.5 0  9.647058823532147 -2.5 0  9.784313725492522 -2.5 0  9.921568627452897 -2.5 0  10.05882352941327 -2.5 0  10.19607843137365 -2.5 0  10.33333333333402 -2.5 0  10.4705882352944 -2.5 0  10.60784313725478 -2.5 0  10.74509803921515 -2.5 0  10.88235294117553 -2.5 0  11.0196078431359 -2.5 0  11.15686274509628 -2.5 0  11.29411764705665 -2.5 0  11.43137254901703 -2.5 0  11.56862745097915 -2.5 0  11.70588235294301 -2.5 0  11.84313725490686 -2.5 0  11.98039215687072 -2.5 0  12.11764705883209 -2.5 0  12.25490196079247 -2.5 0  12.39215686275285 -2.5 0  12.52941176471322 -2.5 0  12.6666666666736 -2.5 0  12.80392156863397 -2.5 0  12.94117647059435 -2.5 0  13.07843137255473 -2.5 0  13.2156862745151 -2.5 0  13.35294117647548 -2.5 0  13.49019607843586 -2.5 0  13.62745098039623 -2.5 0  13.76470588235661 -2.5 0  13.90196078431699 -2.5 0  14.03921568627736 -2.5 0  14.17647058823774 -2.5 0  14.31372549019812 -2.5 0  14.45098039215849 -2.5 0  14.58823529411887 -2.5 0  14.72549019607925 -2.5 0  14.86274509803962 -2.5 0  15.20270270270254 -2.5 0  15.40540540540509 -2.5 0  15.60810810810763 -2.5 0  15.81081081081017 -2.5 0  16.01351351351227 -2.5 0  16.21621621621265 -2.5 0  16.41891891891279 -2.5 0  16.62162162161294 -2.5 0  16.82432432431308 -2.5 0  17.02702702701322 -2.5 0  17.22972972971337 -2.5 0  17.43243243241351 -2.5 0  17.63513513511365 -2.5 0  17.83783783781379 -2.5 0  18.04054054051394 -2.5 0  18.24324324321408 -2.5 0  18.44594594591422 -2.5 0  18.64864864861436 -2.5 0  18.85135135131451 -2.5 0  19.05405405401465 -2.5 0  19.25675675671479 -2.5 0  19.45945945941494 -2.5 0  19.66216216211508 -2.5 0  19.86486486481522 -2.5 0  20.06756756751536 -2.5 0  20.27027027021551 -2.5 0  20.47297297291565 -2.5 0  20.6756756756158 -2.5 0  20.87837837831594 -2.5 0  21.08108108101608 -2.5 0  21.28378378371622 -2.5 0  21.48648648641637 -2.5 0  21.68918918911651 -2.5 0  21.89189189181666 -2.5 0  22.0945945945168 -2.5 0  22.29729729721694 -2.5 0  22.49999999991778 -2.5 0  22.70270270262203 -2.5 0  22.90540540532697 -2.5 0  23.10810810803191 -2.5 0  23.31081081073686 -2.5 0  23.5135135134418 -2.5 0  23.71621621614674 -2.5 0  23.91891891885169 -2.5 0  24.12162162155663 -2.5 0  24.32432432426158 -2.5 0  24.52702702696652 -2.5 0  24.72972972967146 -2.5 0  24.93243243237641 -2.5 0  25.13513513508135 -2.5 0  25.3378378377863 -2.5 0  25.54054054049124 -2.5 0  25.74324324319618 -2.5 0  25.94594594590112 -2.5 0  26.14864864860607 -2.5 0  26.35135135131101 -2.5 0  26.55405405401596 -2.5 0  26.7567567567209 -2.5 0  26.95945945942584 -2.5 0  27.16216216213079 -2.5 0  27.36486486483573 -2.5 0  27.56756756754068 -2.5 0  27.77027027024562 -2.5 0  27.97297297295056 -2.5 0  28.1756756756555 -2.5 0  28.37837837836045 -2.5 0  28.5810810810654 -2.5 0  28.78378378377034 -2.5 0  28.98648648647528 -2.5 0  29.18918918918023 -2.5 0  29.39189189188517 -2.5 0  29.59459459459011 -2.5 0  29.79729729729506 -2.5 0  30 -3.000000000000001 0  30 -3.500000000000001 0  30 -4.000000000000001 0  30 -4.5 0  8 4.499999999999999 0  8 3.999999999999999 0  8 3.499999999999999 0  8 3 0  8.137254901963859 2.5 0  8.274509803926303 2.5 0  8.411764705886863 2.5 0  8.549019607849138 2.5 0  8.686274509809513 2.5 0  8.82352941176989 2.5 0  8.960784313730265 2.5 0  9.098039215690642 2.5 0  9.235294117651017 2.5 0  9.372549019611395 2.5 0  9.50980392157177 2.5 0  9.647058823532147 2.5 0  9.784313725492522 2.5 0  9.921568627452897 2.5 0  10.05882352941327 2.5 0  10.19607843137365 2.5 0  10.33333333333402 2.5 0  10.4705882352944 2.5 0  10.60784313725478 2.5 0  10.74509803921515 2.5 0  10.88235294117553 2.5 0  11.0196078431359 2.5 0  11.15686274509628 2.5 0  11.29411764705665 2.5 0  11.43137254901703 2.5 0  11.56862745097915 2.5 0  11.70588235294301 2.5 0  11.84313725490686 2.5 0  11.98039215687072 2.5 0  12.11764705883209 2.5 0  12.25490196079247 2.5 0  1
[...]
<PointData  Vectors="f_17"> 
<DataArray  type="Float64"  Name="f_17"  NumberOfComponents="3" format="ascii">1.0000001324425543e+00 0.0000000000000000e+00 0.0000000000000000e+00  1.0388512815754292e+00 0.0000000000000000e+00 0.0000000000000000e+00  1.0603712632887223e+00 0.0000000000000000e+00 0.0000000000000000e+00  1.0854368071357721e+00 0.0000000000000000e+00 0.0000000000000000e+00  1.0794810383979763e+00 0.0000000000000000e+00 0.0000000000000000e+00  1.0540920161437308e+00 0.0000000000000000e+00 0.0000000000000000e+00  1.0420274154309801e+00 0.0000000000000000e+00 0.0000000000000000e+00  1.0000001324425543e+00 0.0000000000000000e+00 0.0000000000000000e+00  1.0185688489493423e+00 -4.9231496245550656e-02 0.0000000000000000e+00  1.0089098370992642e+00 7.0794443595074766e-02 0.0000000000000000e+00  1.0709679760234343e+00 7.5374409856603999e-02 0.0000000000000000e+00  1.0558307789828307e+00 8.5788157797632866e-02 0.0000000000000000e+00  1.1228943709940369e+00 3.4575221398288447e-02 0.0000000000000000e+00  1.0242085599265172e+00 5.2382335997143786e-02 0.0000000000000000e+00  0.0000000000000000e+00 0.0000000000000000e+00 0.0000000000000000e+00  0.0000000000000000e+00 0.0000000000000000e+00 0.0000000000000000e+00  1.0000001324425543e+00 0.0000000000000000e+00 0.0000000000000000e+00  9.9929954058859216e-01 0.0000000000000000e+00 0.0000000000000000e+00  9.9874403893911845e-01 0.0000000000000000e+00 0.0000000000000000e+00  1.0007698262891709e+00 0.0000000000000000e+00 0.0000000000000000e+00  1.0005196768413904e+00 0.0000000000000000e+00 0.0000000000000000e+00  1.0013758355043687e+00 0.0000000000000000e+00 0.0000000000000000e+00  1.0015376667406537e+00 0.0000000000000000e+00 0.0000000000000000e+00  1.0016403703005774e+00 0.0000000000000000e+00 0.0000000000000000e+00  1.0022551566112143e+00 0.0000000000000000e+00 0.0000000000000000e+00  1.0032589558874183e+00 0.0000000000000000e+00 0.0000000000000000e+00  1.0041871045646147e+00 0.0000000000000000e+00 0.0000000000000000e+00  1.0054651359036306e+00 0.0000000000000000e+00 0.0000000000000000e+00  1.0075370097861622e+00 0.0000000000000000e+00 0.0000000000000000e+00  1.0097201317809728e+00 0.0000000000000000e+00 0.0000000000000000e+00  1.0134860542785362e+00 0.0000000000000000e+00 0.0000000000000000e+00  1.0150353731644612e+00 0.0000000000000000e+00 0.0000000000000000e+00  1.0193839190279874e+00 0.0000000000000000e+00 0.0000000000000000e+00  1.0259041082497038e+00 0.0000000000000000e+00 0.0000000000000000e+00  1.0311096299274054e+00 0.0000000000000000e+00 0.0000000000000000e+00  1.0467249057845318e+00 0.0000000000000000e+00 0.0000000000000000e+00  1.0551489205492937e+00 0.0000000000000000e+00 0.0000000000000000e+00  1.0631616565768276e+00 0.0000000000000000e+00 0.0000000000000000e+00  1.0718160623456379e+00 0.0000000000000000e+00 0.0000000000000000e+00  1.0791713201481496e+00 0.0000000000000000e+00 0.0000000000000000e+00  1.0859758475554431e+00 0.0000000000000000e+00 0.0000000000000000e+00  1.0923813379136633e+00 0.0000000000000000e+00 0.0000000000000000e+00  1.0960744119378363e+00 0.0000000000000000e+00 0.0000000000000000e+00  1.0985949330663549e+00 0.0000000000000000e+00 0.0000000000000000e+00  1.0988715621956191e+00 0.0000000000000000e+00 0.0000000000000000e+00  1.0974677721806967e+00 0.0000000000000000e+00 0.0000000000000000e+00  1.0929817106773239e+00 0.0000000000000000e+00 0.0000000000000000e+00  1.0877280304256554e+00 0.0000000000000000e+00 0.0000000000000000e+00  1.0808178417384635e+00 0.0000000000000000e+00 0.0000000000000000e+00  1.0730654752429916e+00 0.0000000000000000e+00 0.0000000000000000e+00  1.0657516442544506e+00 0.0000000000000000e+00 0.0000000000000000e+00  1.0592061731429465e+00 0.0000000000000000e+00 0.0000000000000000e+00  1.0544338624228498e+00 0.0000000000000000e+00 0.0000000000000000e+00  1.0514726848457663e+00 0.0000000000000000e+00 0.0000000000000000e+00  1.0505609929255115e+00 0.0000000000000000e+00 0.0000000000000000e+00  1.0527854905007057e+00 0.0000000000000000e+00 0.0000000000000000e+00  1.0566970837702456e+00 0.0000000000000000e+00 0.0000000000000000e+00  1.0597647096823597e+00 0.0000000000000000e+00 0.0000000000000000e+00  1.0628658129520094e+00 0.0000000000000000e+00 0.0000000000000000e+00  1.0641626292336137e+00 0.0000000000000000e+00 0.0000000000000000e+00  1.0631335859530349e+00 0.0000000000000000e+00 0.0000000000000000e+00  1.0603962723782276e+00 0.0000000000000000e+00 0.0000000000000000e+00  1.0555536453179784e+00 0.0000000000000000e+00 0.0000000000000000e+00  1.0501488729275206e+00 0.0000000000000000e+00 0.0000000000000000e+00  1.0454235671318057e+00 0.0000000000000000e+00 0.0000000000000000e+00  1.0413630222173988e+00 0.0000000000000000e+00 0.0000000000000000e+00  1.0392259888908000e+00 0.0000000000000000e+00 0.0000000000000000e+00  1.0410522266560875e+00 0.0000000000000000e+00 0.0000000000000000e+00  1.0440127537697219e+00 0.0000000000000000e+00 0.0000000000000000e+00  1.0483452528295036e+00 0.0000000000000000e+00 0.0000000000000000e+00  1.0543690630351870e+00 0.0000000000000000e+00 0.0000000000000000e+00  1.0589243467989822e+00 0.0000000000000000e+00 0.0000000000000000e+00  1.0617402924736876e+00 0.0000000000000000e+00 0.0000000000000000e+00  1.0637620812498576e+00 0.0000000000000000e+00 0.0000000000000000e+00  1.0625797177000271e+00 0.0000000000000000e+00 0.0000000000000000e+00  1.0593092591475148e+00 0.0000000000000000e+00 0.0000000000000000e+00  1.0557998492896150e+00 0.0000000000000000e+00 0.0000000000000000e+00  1.0516154591363298e+00 0.0000000000000000e+00 0.0000000000000000e+00  1.0484607677748283e+00 0.0000000000000000e+00 0.0000000000000000e+00  1.0476798294598233e+00 0.0000000000000000e+00 0.0000000000000000e+00  1.0479931647991980e+00 0.0000000000000000e+00 0.0000000000000000e+00  1.0498846128009804e+00 0.0000000000000000e+00 0.0000000000000000e+00  1.0556428982569144e+00 0.0000000000000000e+00 0.0000000000000000e+00  1.0597072258785258e+00 0.0000000000000000e+00 0.0000000000000000e+00  1.0616655208739789e+00 0.0000000000000000e+00 0.0000000000000000e+00  1.0632692431303545e+00 0.0000000000000000e+00 0.0000000000000000e+00  1.0645639728840417e+00 0.0000000000000000e+00 0.0000000000000000e+00  1.0629352545569704e+00 0.0000000000000000e+00 0.0000000000000000e+00  1.0566898961154345e+00 0.0000000000000000e+00 0.0000000000000000e+00  1.0526961747661605e+00 0.0000000000000000e+00 0.0000000000000000e+00  1.0499705478900618e+00 0.0000000000000000e+00 0.0000000000000000e+00  1.0499385072624905e+00 0.0000000000000000e+00 0.0000000000000000e+00  1.0520458249800904e+00 0.0000000000000000e+00 0.0000000000000000e+00  1.0551527314571063e+00 0.0000000000000000e+00 0.0000000000000000e+00  1.0592757474133252e+00 0.0000000000000000e+00 0.0000000000000000e+00  1.0633621486323355e+00 0.0000000000000000e+00 0.0000000000000000e+00  1.0665525067159167e+00 0.0000000000000000e+00 0.0000000000000000e+00  1.0675008341722967e+00 0.0000000000000000e+00 0.0000000000000000e+00  1.0671876291747731e+00 0.0000000000000000e+00 0.0000000000000000e+00  1.0650181290850600e+00 0.0000000000000000e+00 0.0000000000000000e+00  1.0617885453276550e+00 0.0000000000000000e+00 0.0000000000000000e+00  1.0591186515806728e+00 0.0000000000000000e+00 0.0000000000000000e+00  1.0573701060116740e+00 0.0000000000000000e+00 0.0000000000000000e+00  1.0578889170740338e+00 0.0000000000000000e+00 0.0000000000000000e+00  1.0597020463095161e+00 0.0000000000000000e+00 0.0000000000000000e+00  1.0639754385851854e+00 0.0000000000000000e+00 0.0000000000000000e+00  1.0692447057723367e+00 0.0000000000000000e+00 0.0000000000000000e+00  1.0754927339509326e+00 0.0000000000000000e+00 0.0000000000000000e+00  1.0803386789941012e+00 0.0000000000000000e+00 0.0000000000000000e+00  1.0842359006286437e+00 0.0000000000000000e+00 0.0000000000000000e+00  1.0852688872060550e+00 0.0000000000000000e+00 0.0000000000000000e+00  1.0867468037169337e+00 1.0742050501915833e-03 0.0000000000000000e+00  1.0900942355240966e+00 2.9907468842713916e-03 0.0000000000000000e+00  1.0964321385412075e+00 7.0987535075058127e-03 0.0000000000000000e+00  1.1062424002248576e+00 1.5870527419092357e-02 0.0000000000000000e+00  1.1226168571798170e+00 3.4010771607798015e-02 0.0000000000000000e+00  1.1348610087202569e+00 6.2915244680947460e-02 0.0000000000000000e+00  1.1238641298553493e+00 1.1043293791660164e-01 0.0000000000000000e+00  1.0728722201560414e+00 1.6388142702922098e-01 0.0000000000000000e+00  9.8000702537664031e-01 2.1803910988457417e-01 0.0000000000000000e+00  8.6940442171627874e-01 2.5040530552775864e-01 0.0000000000000000e+00  7.7811838576807291e-01 2.6857226871764911e-01 0.0000000000000000e+00  7.3258117541781109e-01 2.7109750925444392e-01 0.0000000000000000e+00  7.4183335791791416e-01 2.6853245881436361e-01 0.0000000000000000e+00  7.9309190688547504e-01 2.6538684403496221e-01 0.0000000000000000e+00  8.7035799099700950e-01 2.4500325700999859e-01 0.0000000000000000e+00  9.4517513285923549e-01 2.0406832414084408e-01 0.0000000000000000e+00  9.9720303834927659e-01 1.5176365182667662e-01 0.0000000000000000e+00  1.0276233680852751e+00 1.0001848107496882e-01 0.0000000000000000e+00  1.0484492170951825e+00 6.6488844195793401e-02 0.0000000000000000e+00  1.0644021136904283e+00 4.3359535100755360e-02 0.0000000000000000e+00  1.0732713219839833e+00 2.8013657935968935e-02 0.0000000000000000e+00  1.0780743890736764e+00 1.6689364889531384e-02 0.0000000000000000e+00  1.0795440786042729e+00 7.6737767988719818e-03 0.0000000000000000e+00  1.0727943219854736e+00 0.0000000000000000e+00 0.0000000000000000e+00  1.0684604125830588e+00 0.0000000000000000e+00 0.0000000000000000e+00  1.0664774889037225e+00 0.0000000000000000e+00 0.0000000000000000e+00  1.0669838350032326e+00 0.0000000000000000e+00 0.0000000000000000e+00  1.0680865796735555e+00 0.0000000000000000e+00 0.0000000000000000e+00  1.0698817660708235e+00 0.0000000000000000e+00 0.0000000000000000e+00  1.0712603467563200e+00 0.0000000000000000e+00 0.0000000000000000e+00  1.0713744618792040e+00 0.0000000000000000e+00 0.0000000000000000e+00  1.0690460620919131e+00 0.0000000000000000e+00 0.0000000000000000e+00  1.0655090511765348e+00 0.0000000000000000e+00 0.0000000000000000e+00  1.0609275262480846e+00 0.0000000000000000e+00 0.0000000000000000e+00  1.0562372156752640e+00 0.0000000000000000e+00 0.0000000000000000e+00  1.0526317385558943e+00 0.0000000000000000e+00 0.0000000000000000e+00  1.0514974613627823e+00 0.0000000000000000e+00 0.0000000000000000e+00  1.0516728827612085e+00 0.0000000000000000e+00 0.0000000000000000e+00  1.0546260164837753e+00 0.0000000000000000e+00 0.0000000000000000e+00  1.0575260090824192e+00 0.0000000000000000e+00 0.0000000000000000e+00  1.0611552526686521e+00 0.0000000000000000e+00 0.0000000000000000e+00  1.0636865056588150e+00 0.0000000000000000e+00 0.0000000000000000e+00  1.0652326601777760e+00 0.0000000000000000e+00 0.0000000000000000e+00  1.0645731518502421e+00 0.0000000000000000e+00 0.0000000000000000e+00  1.0616256607756498e+00 0.0000000000000000e+00 0.0000000000000000e+00  1.0581614045933352e+00 0.0000000000000000e+00 0.0000000000000000e+00  1.0501522235662888e+00 0.0000000000000000e+00 0.0000000000000000e+00  1.0482574934148063e+00 0.0000000000000000e+00 0.0000000000000000e+00  1.0472303024666665e+00 0.0000000000000000e+00 0.0000000000000000e+00  1.0496256249164304e+00 0.0000000000000000e+00 0.0000000000000000e+00  1.0544265889917748e+00 0.0000000000000000e+00 0.0000000000000000e+00  1.0586239726092381e+00 0.0000000000000000e+00 0.0000000000000000e+00  1.0606909723255684e+00 0.0000000000000000e+00 0.0000000000000000e+00  1.0636522789881084e+00 0.0000000000000000e+00 0.0000000000000000e+00  1.0644213367193811e+00 0.0000000000000000e+00 0.0000000000000000e+00  1.0621706425864514e+00 0.0000000000000000e+00 0.0000000000000000e+00  1.0586846005386179e+00 0.0000000000000000e+00 0.0000000000000000e+00  1.0541019003825820e+00 0.0000000000000000e+00 0.0000000000000000e+00  1.0487899015066129e+00 0.0000000000000000e+00 0.0000000000000000e+00  1.0453238856059988e+00 0.0000000000000000e+00 0.0000000000000000e+00  1.0435730028134518e+00 0.0000000000000000e+00 0.0000000000000000e+00  1.0430534213199965e+00 0.0000000000000000e+00 0.0000000000000000e+00  1.0459249521082661e+00 0.0000000000000000e+00 0.0000000000000000e+00  1.0502203642269192e+00 0.0000000000000000e+00 0.0000000000000000e+00  1.0542983818852414e+00 0.0000000000000000e+00 0.0000000000000000e+00  1.0587770421892044e+00 0.0000000000000000e+00 0.0000000000000000e+00  1.0615928336567244e+00 0.0000000000000000e+00 0.0000000000000000e+00  1.0611353112613011e+00 0.0000000000000000e+00 0.0000000000000000e+00  1.0596007768262379e+00 0.0000000000000000e+00 0.0000000000000000e+00  1.0559360266448254e+00 0.0000000000000000e+00 0.0000000000000000e+00  1.0501675676439541e+00 0.0000000000000000e+00 0.0000000000000000e+00  1.0448919888475574e+00 0.0000000000000000e+00 0.0000000000000000e+00  1.0407064163886173e+00 0.0000000000000000e+00 0.0000000000000000e+00  1.0382086359849492e+00 0.0000000000000000e+00 0.0000000000000000e+00  1.0385585189905824e+00 0.0000000000000000e+00 0.0000000000000000e+00  1.0414613196187010e+00 0.0000000000000000e+00 0.0000000000000000e+00  1.0460723853880276e+00 0.0000000000000000e+00 0.0000000000000000e+00  1.0527711713556009e+00 0.0000000000000000e+00 0.0000000000000000e+00  1.0586000997288321e+00 0.0000000000000000e+00 0.0000000000000000e+00  1.0642696220725001e+00 0.0000000000000000e+00 0.0000000000000000e+00  1.0694455313251940e+00 0.0000000000000000e+00 0.0000000000000000e+00  1.0728446335612847e+00 0.0000000000000000e+00 0.0000000000000000e+00  1.0742281371625453e+00 0.0000000000000000e+00 0.0000000000000000e+00  1.0741161731189497e+00 0.0000000000000000e+00 0.0000000000000000e+00  1.0740489284761563e+00 0.0000000000000000e+00 0.0000000000000000e+00  1.0750486325740591e+00 0.0000000000000000e+00 0.0000000000000000e+00  1.0760095270700321e+00 0.0000000000000000e+00 0.0000000000000000e+00  1.0777010776991331e+00 0.0000000000000000e+00 0.0000000000000000e+00  1.0814494033410484e+00 0.0000000000000000e+00 0.0000000000000000e+00  1.0836592213433300e+00 0.0000000000000000e+00 0.0000000000000000e+00  1.0861868075568546e+00 0.0000000000000000e+00 0.0000000000000000e+00  1.0871939450499255e+00 0.0000000000000000e+00 0.0000000000000000e+00  1.0859295829171918e+00 0.0000000000000000e+00 0.0000000000000000e+00  1.0829786883051951e+00 0.0000000000000000e+00 0.0000000000000000e+00  1.0785998398311605e+00 0.0000000000000000e+00 0.0000000000000000e+00  1.0727517445400647e+00 0.0000000000000000e+00 0.0000000000000000e+00  1.0651188235028866e+00 0.0000000000000000e+00 0.0000000000000000e+00  1.0579042162647629e+00 0.0000000000000000e+00 0.0000000000000000e+00  1.0498493147993162e+00 0.0000000000000000e+00 0.0000000000000000e+00  1.0343888081607369e+00 0.0000000000000000e+00 0.0000000000000000e+00  1.0277230651094569e+00 0.0000000000000000e+00 0.0000000000000000e+00  1.0224367115577049e+00 0.0000000000000000e+00 0.0000000000000000e+00  1.0176944850097434e+00 0.0000000000000000e+00 0.0000000000000000e+00  1.0138173533380617e+00 0.0000000000000000e+00 0.0000000000000000e+00  1.0107496140195269e+00 0.0000000000000000e+00 0.0000000000000000e+00  1.0083926935948222e+00 0.0000000000000000e+00 0.0000000000000000e+00  1.0060925645030177e+00 0.0000000000000000e+00 0.0000000000000000e+00  1.0044549579572122e+00 0.0000000000000000e+00 0.0000000000000000e+00  1.0032694176154975e+00 0.0000000000000000e+00 0.0000000000000000e+00  1.0019200451440391e+00 0.0000000000000000e+00 0.0000000000000000e+00  1.0016128545822278e+00 0.0000000000000000e+00 0.0000000000000000e+00  1.0004190081869886e+00 0.0000000000000000e+00 0.0000000000000000e+00  1.0002954095941963e+00 0.0000000000000000e+00 0.0000000000000000e+00  9.9983300666499630e-01 0.0000000000000000e+00 0.0000000000000000e+00  1.0004788954709598e+00 0.0000000000000000e+00 0.0000000000000000e+00  1.0002346135024194e+00 0.0000000000000000e+00 0.0000000000000000e+00  9.9979375164182882e-01 0.0000000000000000e+00 0.0000000000000000e+00  1.0000001324425543e+00 0.0000000000000000e+00 0.0000000000000000e+00  1.0000001324425543e+00 0.0000000000000000e+00 0.0000000000000000e+00  1.0000001324425543e+00 0.0000000000000000e+00 0.0000000000000000e+00  1.0000001324425543e+00 0.0000000000000000e+00 0.0000000000000000e+00  1.0000001324425543e+00 0.0000000000000000e+00 0.0000000000000000e+00  1.0000001324425543e+00 0.0000000000000000e+00 0.0000000000000000e+00  1.0000001324425543e+00 0.0000000000000000e+00 0.0000000000000000e+00  1.0000001324425543e+00 0.0000000000000000e+00 0.0000000000000000e+00  1.0000001324425543e+00 0.0000000000000000e+00 0.0000000000000000e+00  1.0000001324425543e+00 0.0000000000000000e+00 0.0000000000000000e+00  1.0000001324425543e+00 0.0000000000000000e+00 0.0000000000000000e+00  1.0000001324425543e+00 0.0000000000000000e+00 0.0000000000000000e+00  1.0000001324425543e+00 0.0000000000000000e+00 0.0000000000000000e+00  1.0000001324425543e+00 0.0000000000000000e+00 0.0000000000000000e+00  1.0000001324425543e+00 0.0000000000000000e+00 0.0000000000000000e+00  1.0000001324425543e+00 0.0000000000000000e+00 0.0000000000000000e+00  1.0000001324425543e+00 0.0000000000000000e+00 0.0000000000000000e+00  1.0000001324425543e+00 0.0000000000000000e+00 0.0000000000000000e+00  1.0000001324425543e+00 0.0000000000000000e+00 0.0000000000000000e+00  1.0000001324425543e+00 0.0000000000000000e+00 0.0000000000000000e+00  1.0382046339572988e+00 -9.1465718465808012e-03 0.0000000000000000e+00  1.0351197263976240e+00 -1.8455755358038062e-02 0.0000000000000000e+00  1.0327817915106121e+00 -2.8467290004220273e-02 0.0000000000000000e+00  1.0269897545374260e+00 -3.8796568995240983e-02 0.0000000000000000e+00  1.0210725364837627e+00 -5.2817306111463964e-02 0.0000000000000000e+00  1.0253098926922883e+00 -5.6072523955276059e-02 0.0000000000000000e+00  1.0291214996264881e+00 -5.9404375569720613e-02 0.0000000000000000e+00  1.0339180562406494e+00 -6.2429478211151579e-02 0.0000000000000000e+00  1.0389326470494269e+00 -6.5314038704793645e-02 0.0000000000000000e+00  1.0445222914726768e+00 -6.7778687899777521e-02 0.0000000000000000e+00  1.0506361553843335e+00 -6.9907475531689967e-02 0.0000000000000000e+00  1.0570989930296328e+00 -7.1397179766986105e-02 0.0000000000000000e+00  1.0640089589012447e+00 -7.2356747172237224e-02 0.0000000000000000e+00  1.0709183695864881e+00 -7.2472920151135739e-02 0.0000000000000000e+00  1.0780503801084311e+00 -7.2015427612034402e-02 0.0000000000000000e+00  1.0850606413291282e+00 -7.0900433982901689e-02 0.0000000000000000e+00  1.0920512635376585e+00 -6.8814232665593000e-02 0.0000000000000000e+00  1.0985355933588410e+00 -6.5942019652500503e-02 0.0000000000000000e+00  1.1045780012401034e+00 -6.2609709066018926e-02 0.0000000000000000e+00  1.1100629895655045e+00 -5.8717852815331935e-02 0.0000000000000000e+00  1.1148479300501104e+00 -5.4445178985546197e-02 0.0000000000000000e+00  1.1188999626150253e+00 -4.9897048723188557e-02 0.0000000000000000e+00  1.1223598375306918e+00 -4.5356076273434076e-02 0.0000000000000000e+00  1.1251660965362873e+00 -4.0688069683222416e-02 0.0000000000000000e+00  1.1274563345401529e+00 -3.6422125427587916e-02 0.0000000000000000e+00  1.1293085581753586e+00 -3.2074251180448696e-02 0.0000000000000000e+00  1.1308480124000562e+00 -2.8037315887824869e-02 0.0000000000000000e+00  1.1323146168285130e+00 -2.4361464210636896e-02 0.0000000000000000e+00  1.1337195856214224e+00 -2.0893959049644823e-02 0.0000000000000000e+00  1.1351693247064960e+00 -1.7531011883469536e-02 0.0000000000000000e+00  1.1367482975834244e+00 -1.4060725908783250e-02 0.0000000000000000e+00  1.1385166003020704e+00 -1.0450611685050853e-02 0.0000000000000000e+00  1.1403287319654023e+00 -6.4687904251231340e-03 0.0000000000000000e+00  1.1422390078243536e+00 -1.9859187425526272e-03 0.0000000000000000e+00  1.1439993957762542e+00 3.0821191364287740e-03 0.0000000000000000e+00  1.1454628751190881e+00 8.8617232140468828e-03 0