<?xml version="1.0"?>
<VTKFile type="UnstructuredGrid"  version="0.1"  >
<UnstructuredGrid>
<Piece  NumberOfPoints="10199" NumberOfCells="20110">
<Points>
<DataArray  type="Float64"  NumberOfComponents="3"  format="ascii">0 -5 0  8 -5 0  30 -5 0  40 -5 0  40 5 0  30 5 0  8 5 0  0 5 0  8 -2.5 0  15 -2.5 0  30 -2.5 0  30 2.5 0  15 2.5 0  8 2.5 0  10 0.5 0  10 -0.5 0  0 0 0  0.4210526315780956 -5 0  0.8421052631563433 -5 0  1.263157894734281 -5 0  1.684210526311999 -5 0  2.105263157889717 -5 0  2.526315789467435 -5 0  2.947368421045153 -5 0  3.368421052622872 -5 0  3.78947368420059 -5 0  4.210526315779479 -5 0  4.631578947359537 -5 0  5.052631578939595 -5 0  5.473684210519653 -5 0  5.89473684209971 -5 0  6.315789473679768 -5 0  6.736842105259826 -5 0  7.157894736839884 -5 0  7.578947368419942 -5 0  8.407407407405314 -5 0  8.814814814810628 -5 0  9.222222222215942 -5 0  9.629629629621256 -5 0  10.03703703702657 -5 0  10.44444444443188 -5 0  10.8518518518372 -5 0  11.25925925924251 -5 0  11.66666666664783 -5 0  12.07407407405314 -5 0  12.48148148145846 -5 0  12.88888888886377 -5 0  13.29629629626908 -5 0  13.7037037036744 -5 0  14.11111111107971 -5 0  14.51851851848502 -5 0  14.92592592589034 -5 0  15.33333333329565 -5 0  15.74074074070096 -5 0  16.14814814810754 -5 0  16.55555555551614 -5 0  16.96296296292474 -5 0  17.37037037033335 -5 0  17.77777777774195 -5 0  18.18518518515056 -5 0  18.59259259255916 -5 0  18.99999999996776 -5 0  19.40740740737636 -5 0  19.81481481478497 -5 0  20.22222222219357 -5 0  20.62962962960217 -5 0  21.03703703701077 -5 0  21.44444444441937 -5 0  21.85185185182797 -5 0  22.25925925923657 -5 0  22.66666666664518 -5 0  23.07407407405378 -5 0  23.48148148146238 -5 0  23.88888888887098 -5 0  24.29629629627958 -5 0  24.70370370368818 -5 0  25.11111111109678 -5 0  25.51851851850539 -5 0  25.92592592591399 -5 0  26.33333333332259 -5 0  26.74074074073119 -5 0  27.14814814813979 -5 0  27.55555555554839 -5 0  27.96296296295699 -5 0  28.3703703703656 -5 0  28.7777777777742 -5 0  29.1851851851828 -5 0  29.5925925925914 -5 0  30.41666666667852 -5 0  30.83333333335704 -5 0  31.25000000003556 -5 0  31.66666666671408 -5 0  32.08333333338936 -5 0  32.50000000005308 -5 0  32.9166666667168 -5 0  33.33333333338052 -5 0  33.75000000004424 -5 0  34.16666666670795 -5 0  34.58333333337167 -5 0  35.00000000003539 -5 0  35.41666666669911 -5 0  35.83333333336282 -5 0  36.25000000002654 -5 0  36.66666666669026 -5 0  37.08333333335398 -5 0  37.50000000001769 -5 0  37.91666666668141 -5 0  38.33333333334513 -5 0  38.75000000000885 -5 0  39.16666666667257 -5 0  39.58333333333628 -5 0  40 -4.583333333332821 0  40 -4.166666666665642 0  40 -3.74999999999855 0  40 -3.333333333333135 0  40 -2.916666666667806 0  40 -2.500000000002478 0  40 -2.083333333337148 0  40 -1.666666666671818 0  40 -1.250000000006488 0  40 -0.8333333333405228 0  40 -0.4166666666733416 0  40 -6.163070054299169e-12 0  40 0.4166666666610173 0  40 0.8333333333281976 0  40 1.249999999995378 0  40 1.666666666662558 0  40 2.083333333329739 0  40 2.499999999996919 0  40 2.916666666664099 0  40 3.33333333333128 0  40 3.74999999999846 0  40 4.166666666665641 0  40 4.583333333332821 0  39.58333333333628 5 0  39.16666666667256 5 0  38.75000000000885 5 0  38.33333333334513 5 0  37.91666666668141 5 0  37.50000000001769 5 0  37.08333333335398 5 0  36.66666666669025 5 0  36.25000000002654 5 0  35.83333333336282 5 0  35.41666666669911 5 0  35.00000000003539 5 0  34.58333333337167 5 0  34.16666666670795 5 0  33.75000000004424 5 0  33.33333333338052 5 0  32.9166666667168 5 0  32.50000000005308 5 0  32.08333333338936 5 0  31.66666666671408 5 0  31.25000000003556 5 0  30.83333333335704 5 0  30.41666666667852 5 0  29.59259259259259 5 0  29.18518518518519 5 0  28.77777777777778 5 0  28.37037037037037 5 0  27.96296296296296 5 0  27.55555555555556 5 0  27.14814814814815 5 0  26.74074074074074 5 0  26.33333333333333 5 0  25.92592592592593 5 0  25.51851851851852 5 0  25.11111111111111 5 0  24.7037037037037 5 0  24.2962962962963 5 0  23.88888888888889 5 0  23.48148148148148 5 0  23.07407407407408 5 0  22.66666666666667 5 0  22.25925925925926 5 0  21.85185185185185 5 0  21.44444444444445 5 0  21.03703703703704 5 0  20.62962962962963 5 0  20.22222222222222 5 0  19.81481481481482 5 0  19.40740740740741 5 0  19 5 0  18.5925925925926 5 0  18.18518518518519 5 0  17.77777777777778 5 0  17.37037037037037 5 0  16.96296296296296 5 0  16.55555555555556 5 0  16.14814814814815 5 0  15.74074074074074 5 0  15.33333333333333 5 0  14.92592592592593 5 0  14.51851851851852 5 0  14.11111111111111 5 0  13.70370370370371 5 0  13.2962962962963 5 0  12.88888888888889 5 0  12.48148148148148 5 0  12.07407407407408 5 0  11.66666666666667 5 0  11.25925925925926 5 0  10.85185185185185 5 0  10.44444444444445 5 0  10.03703703703704 5 0  9.629629629629633 5 0  9.222222222222221 5 0  8.814814814814817 5 0  8.407407407407408 5 0  7.5789473684193 5 0  7.157894736838599 5 0  6.73684210526082 5 0  6.315789473684795 5 0  5.894736842108769 5 0  5.473684210532742 5 0  5.052631578956715 5 0  4.631578947380689 5 0  4.210526315804662 5 0  3.789473684226299 5 0  3.368421052645599 5 0  2.947368421064898 5 0  2.526315789484198 5 0  2.105263157903499 5 0  1.6842105263228 5 0  1.2631578947421 5 0  0.8421052631613994 5 0  0.4210526315806993 5 0  0 4.545454545454545 0  0 4.09090909090909 0  0 3.636363636363634 0  0 3.18181818181818 0  0 2.727272727272726 0  0 2.272727272727271 0  0 1.818181818181817 0  0 1.363636363636363 0  0 0.9090909090909092 0  0 0.454545454545455 0  0 -0.4545454545450807 0  0 -0.9090909090895867 0  0 -1.363636363633713 0  0 -1.818181818177841 0  0 -2.272727272723127 0  0 -2.727272727269273 0  0 -3.181818181815419 0  0 -3.636363636361564 0  0 -4.090909090907709 0  0 -4.545454545453855 0  8 -4.499999999999999 0  8 -3.999999999999999 0  8 -3.499999999999999 0  8 -3 0  8.137254901963859 -2.5 0  8.274509803926303 -2.5 0  8.411764705886863 -2.5 0  8.549019607849138 -2.5 0  8.686274509809513 -2.5 0  8.82352941176989 -2.5 0  8.960784313730265 -2.5 0  9.098039215690642 -2.5 0  9.235294117651017 -2.5 0  9.372549019611395 -2.5 0  9.50980392157177 -2.5 0  9.647058823532147 -2.5 0  9.784313725492522 -2.5 0  9.921568627452897 -2.5 0  10.05882352941327 -2.5 0  10.19607843137365 -2.5 0  10.33333333333402 -2.5 0  10.4705882352944 -2.5 0  10.60784313725478 -2.5 0  10.74509803921515 -2.5 0  10.88235294117553 -2.5 0  11.0196078431359 -2.5 0  11.15686274509628 -2.5 0  11.29411764705665 -2.5 0  11.43137254901703 -2.5 0  11.56862745097915 -2.5 0  11.70588235294301 -2.5 0  11.84313725490686 -2.5 0  11.98039215687072 -2.5 0  12.11764705883209 -2.5 0  12.25490196079247 -2.5 0  12.39215686275285 -2.5 0  12.52941176471322 -2.5 0  12.6666666666736 -2.5 0  12.80392156863397 -2.5 0  12.94117647059435 -2.5 0  13.07843137255473 -2.5 0  13.2156862745151 -2.5 0  13.35294117647548 -2.5 0  13.49019607843586 -2.5 0  13.62745098039623 -2.5 0  13.76470588235661 -2.5 0  13.90196078431699 -2.5 0  14.03921568627736 -2.5 0  14.17647058823774 -2.5 0  14.31372549019812 -2.5 0  14.45098039215849 -2.5 0  14.58823529411887 -2.5 0  14.72549019607925 -2.5 0  14.86274509803962 -2.5 0  15.20270270270254 -2.5 0  15.40540540540509 -2.5 0  15.60810810810763 -2.5 0  15.81081081081017 -2.5 0  16.01351351351227 -2.5 0  16.21621621621265 -2.5 0  16.41891891891279 -2.5 0  16.62162162161294 -2.5 0  16.82432432431308 -2.5 0  17.02702702701322 -2.5 0  17.22972972971337 -2.5 0  17.43243243241351 -2.5 0  17.63513513511365 -2.5 0  17.83783783781379 -2.5 0  18.04054054051394 -2.5 0  18.24324324321408 -2.5 0  18.44594594591422 -2.5 0  18.64864864861436 -2.5 0  18.85135135131451 -2.5 0  19.05405405401465 -2.5 0  19.25675675671479 -2.5 0  19.45945945941494 -2.5 0  19.66216216211508 -2.5 0  19.86486486481522 -2.5 0  20.06756756751536 -2.5 0  20.27027027021551 -2.5 0  20.47297297291565 -2.5 0  20.6756756756158 -2.5 0  20.87837837831594 -2.5 0  21.08108108101608 -2.5 0  21.28378378371622 -2.5 0  21.48648648641637 -2.5 0  21.68918918911651 -2.5 0  21.89189189181666 -2.5 0  22.0945945945168 -2.5 0  22.29729729721694 -2.5 0  22.49999999991778 -2.5 0  22.70270270262203 -2.5 0  22.90540540532697 -2.5 0  23.10810810803191 -2.5 0  23.31081081073686 -2.5 0  23.5135135134418 -2.5 0  23.71621621614674 -2.5 0  23.91891891885169 -2.5 0  24.12162162155663 -2.5 0  24.32432432426158 -2.5 0  24.52702702696652 -2.5 0  24.72972972967146 -2.5 0  24.93243243237641 -2.5 0  25.13513513508135 -2.5 0  25.3378378377863 -2.5 0  25.54054054049124 -2.5 0  25.74324324319618 -2.5 0  25.94594594590112 -2.5 0  26.14864864860607 -2.5 0  26.35135135131101 -2.5 0  26.55405405401596 -2.5 0  26.7567567567209 -2.5 0  26.95945945942584 -2.5 0  27.16216216213079 -2.5 0  27.36486486483573 -2.5 0  27.56756756754068 -2.5 0  27.77027027024562 -2.5 0  27.97297297295056 -2.5 0  28.1756756756555 -2.5 0  28.37837837836045 -2.5 0  28.5810810810654 -2.5 0  28.78378378377034 -2.5 0  28.98648648647528 -2.5 0  29.18918918918023 -2.5 0  29.39189189188517 -2.5 0  29.59459459459011 -2.5 0  29.79729729729506 -2.5 0  30 -3.000000000000001 0  30 -3.500000000000001 0  30 -4.000000000000001 0  30 -4.5 0  8 4.499999999999999 0  8 3.999999999999999 0  8 3.499999999999999 0  8 3 0  8.137254901963859 2.5 0  8.274509803926303 2.5 0  8.411764705886863 2.5 0  8.549019607849138 2.5 0  8.686274509809513 2.5 0  8.82352941176989 2.5 0  8.960784313730265 2.5 0  9.098039215690642 2.5 0  9.235294117651017 2.5 0  9.372549019611395 2.5 0  9.50980392157177 2.5 0  9.647058823532147 2.5 0  9.784313725492522 2.5 0  9.921568627452897 2.5 0  10.05882352941327 2.5 0  10.19607843137365 2.5 0  10.33333333333402 2.5 0  10.4705882352944 2.5 0  10.60784313725478 2.5 0  10.74509803921515 2.5 0  10.88235294117553 2.5 0  11.0196078431359 2.5 0  11.15686274509628 2.5 0  11.29411764705665 2.5 0  11.43137254901703 2.5 0  11.56862745097915 2.5 0  11.70588235294301 2.5 0  11.84313725490686 2.5 0  11.98039215687072 2.5 0  12.11764705883209 2.5 0  12.25490196079247 2.5 0  1
[...]
<PointData  Vectors="f_17"> 
<DataArray  type="Float64"  Name="f_17"  NumberOfComponents="3" format="ascii">1.0000001312965585e+00 0.0000000000000000e+00 0.0000000000000000e+00  1.0397381439848827e+00 0.0000000000000000e+00 0.0000000000000000e+00  1.0648657247707052e+00 0.0000000000000000e+00 0.0000000000000000e+00  1.0925759180173251e+00 0.0000000000000000e+00 0.0000000000000000e+00  1.0728712328358951e+00 0.0000000000000000e+00 0.0000000000000000e+00  1.0495754851020405e+00 0.0000000000000000e+00 0.0000000000000000e+00  1.0411134887930749e+00 0.0000000000000000e+00 0.0000000000000000e+00  1.0000001312965585e+00 0.0000000000000000e+00 0.0000000000000000e+00  1.0217893414222008e+00 -4.9351004862518338e-02 0.0000000000000000e+00  1.0581301842053461e+00 9.1273245263926606e-02 0.0000000000000000e+00  1.1312936740734609e+00 3.8619458001695528e-02 0.0000000000000000e+00  9.9450028748613251e-01 3.3871654793163848e-02 0.0000000000000000e+00  1.0503570045327741e+00 6.1199666921398464e-02 0.0000000000000000e+00  1.0210158937604492e+00 5.2242395563008262e-02 0.0000000000000000e+00  0.0000000000000000e+00 0.0000000000000000e+00 0.0000000000000000e+00  0.0000000000000000e+00 0.0000000000000000e+00 0.0000000000000000e+00  1.0000001312965585e+00 0.0000000000000000e+00 0.0000000000000000e+00  9.9930753996514365e-01 0.0000000000000000e+00 0.0000000000000000e+00  9.9880489195115374e-01 0.0000000000000000e+00 0.0000000000000000e+00  1.0009089934752005e+00 0.0000000000000000e+00 0.0000000000000000e+00  1.0007634433424473e+00 0.0000000000000000e+00 0.0000000000000000e+00  1.0017455706469238e+00 0.0000000000000000e+00 0.0000000000000000e+00  1.0020395138585882e+00 0.0000000000000000e+00 0.0000000000000000e+00  1.0022588573745617e+00 0.0000000000000000e+00 0.0000000000000000e+00  1.0029664600514652e+00 0.0000000000000000e+00 0.0000000000000000e+00  1.0040565638509511e+00 0.0000000000000000e+00 0.0000000000000000e+00  1.0050258881908194e+00 0.0000000000000000e+00 0.0000000000000000e+00  1.0063572004012573e+00 0.0000000000000000e+00 0.0000000000000000e+00  1.0084406188963191e+00 0.0000000000000000e+00 0.0000000000000000e+00  1.0106593360748495e+00 0.0000000000000000e+00 0.0000000000000000e+00  1.0144736105532055e+00 0.0000000000000000e+00 0.0000000000000000e+00  1.0160560291174512e+00 0.0000000000000000e+00 0.0000000000000000e+00  1.0204478507164891e+00 0.0000000000000000e+00 0.0000000000000000e+00  1.0269830544456635e+00 0.0000000000000000e+00 0.0000000000000000e+00  1.0321495096705218e+00 0.0000000000000000e+00 0.0000000000000000e+00  1.0473257706574004e+00 0.0000000000000000e+00 0.0000000000000000e+00  1.0553137775604653e+00 0.0000000000000000e+00 0.0000000000000000e+00  1.0626991858265595e+00 0.0000000000000000e+00 0.0000000000000000e+00  1.0705206888752516e+00 0.0000000000000000e+00 0.0000000000000000e+00  1.0769496906416087e+00 0.0000000000000000e+00 0.0000000000000000e+00  1.0827881846338328e+00 0.0000000000000000e+00 0.0000000000000000e+00  1.0883874527856920e+00 0.0000000000000000e+00 0.0000000000000000e+00  1.0916555391503364e+00 0.0000000000000000e+00 0.0000000000000000e+00  1.0942776837618402e+00 0.0000000000000000e+00 0.0000000000000000e+00  1.0953792934387374e+00 0.0000000000000000e+00 0.0000000000000000e+00  1.0955519495944539e+00 0.0000000000000000e+00 0.0000000000000000e+00  1.0932561940813550e+00 0.0000000000000000e+00 0.0000000000000000e+00  1.0904218441213918e+00 0.0000000000000000e+00 0.0000000000000000e+00  1.0857730725146411e+00 0.0000000000000000e+00 0.0000000000000000e+00  1.0795369221359017e+00 0.0000000000000000e+00 0.0000000000000000e+00  1.0726281297948037e+00 0.0000000000000000e+00 0.0000000000000000e+00  1.0651436641070329e+00 0.0000000000000000e+00 0.0000000000000000e+00  1.0580912785433350e+00 0.0000000000000000e+00 0.0000000000000000e+00  1.0517922010097138e+00 0.0000000000000000e+00 0.0000000000000000e+00  1.0470906642286766e+00 0.0000000000000000e+00 0.0000000000000000e+00  1.0457112173493990e+00 0.0000000000000000e+00 0.0000000000000000e+00  1.0471038496083136e+00 0.0000000000000000e+00 0.0000000000000000e+00  1.0493034754412010e+00 0.0000000000000000e+00 0.0000000000000000e+00  1.0535991499357795e+00 0.0000000000000000e+00 0.0000000000000000e+00  1.0579873967117071e+00 0.0000000000000000e+00 0.0000000000000000e+00  1.0613246531174714e+00 0.0000000000000000e+00 0.0000000000000000e+00  1.0633083269641004e+00 0.0000000000000000e+00 0.0000000000000000e+00  1.0624792736092734e+00 0.0000000000000000e+00 0.0000000000000000e+00  1.0595379470477830e+00 0.0000000000000000e+00 0.0000000000000000e+00  1.0553196649345360e+00 0.0000000000000000e+00 0.0000000000000000e+00  1.0497284572631382e+00 0.0000000000000000e+00 0.0000000000000000e+00  1.0444965388223348e+00 0.0000000000000000e+00 0.0000000000000000e+00  1.0422042156090769e+00 0.0000000000000000e+00 0.0000000000000000e+00  1.0409551141037712e+00 0.0000000000000000e+00 0.0000000000000000e+00  1.0418297286988236e+00 0.0000000000000000e+00 0.0000000000000000e+00  1.0458782232626116e+00 0.0000000000000000e+00 0.0000000000000000e+00  1.0503662474898010e+00 0.0000000000000000e+00 0.0000000000000000e+00  1.0550518548498407e+00 0.0000000000000000e+00 0.0000000000000000e+00  1.0605134902095228e+00 0.0000000000000000e+00 0.0000000000000000e+00  1.0633428085644667e+00 0.0000000000000000e+00 0.0000000000000000e+00  1.0637318763784416e+00 0.0000000000000000e+00 0.0000000000000000e+00  1.0626460268849982e+00 0.0000000000000000e+00 0.0000000000000000e+00  1.0591692098177279e+00 0.0000000000000000e+00 0.0000000000000000e+00  1.0549130627665761e+00 0.0000000000000000e+00 0.0000000000000000e+00  1.0515713591814380e+00 0.0000000000000000e+00 0.0000000000000000e+00  1.0485233414387605e+00 0.0000000000000000e+00 0.0000000000000000e+00  1.0470535917376782e+00 0.0000000000000000e+00 0.0000000000000000e+00  1.0500855054070011e+00 0.0000000000000000e+00 0.0000000000000000e+00  1.0527701108177567e+00 0.0000000000000000e+00 0.0000000000000000e+00  1.0549557603868560e+00 0.0000000000000000e+00 0.0000000000000000e+00  1.0584336752600145e+00 0.0000000000000000e+00 0.0000000000000000e+00  1.0626806035607714e+00 0.0000000000000000e+00 0.0000000000000000e+00  1.0645575087407648e+00 0.0000000000000000e+00 0.0000000000000000e+00  1.0629326821908138e+00 0.0000000000000000e+00 0.0000000000000000e+00  1.0589263390505890e+00 0.0000000000000000e+00 0.0000000000000000e+00  1.0544724065308011e+00 0.0000000000000000e+00 0.0000000000000000e+00  1.0516279553971755e+00 0.0000000000000000e+00 0.0000000000000000e+00  1.0503341174080267e+00 0.0000000000000000e+00 0.0000000000000000e+00  1.0505369489359040e+00 0.0000000000000000e+00 0.0000000000000000e+00  1.0528078746318807e+00 0.0000000000000000e+00 0.0000000000000000e+00  1.0566470731989361e+00 0.0000000000000000e+00 0.0000000000000000e+00  1.0611206320907098e+00 0.0000000000000000e+00 0.0000000000000000e+00  1.0645939840420329e+00 0.0000000000000000e+00 0.0000000000000000e+00  1.0673980415555095e+00 0.0000000000000000e+00 0.0000000000000000e+00  1.0681016240081618e+00 0.0000000000000000e+00 0.0000000000000000e+00  1.0668481137004324e+00 0.0000000000000000e+00 0.0000000000000000e+00  1.0647654043688646e+00 0.0000000000000000e+00 0.0000000000000000e+00  1.0620228785483228e+00 0.0000000000000000e+00 0.0000000000000000e+00  1.0601536427625451e+00 0.0000000000000000e+00 0.0000000000000000e+00  1.0588599202465947e+00 0.0000000000000000e+00 0.0000000000000000e+00  1.0601166003074365e+00 0.0000000000000000e+00 0.0000000000000000e+00  1.0634046871793736e+00 0.0000000000000000e+00 0.0000000000000000e+00  1.0692649678370685e+00 0.0000000000000000e+00 0.0000000000000000e+00  1.0757382127453268e+00 0.0000000000000000e+00 0.0000000000000000e+00  1.0829956798966676e+00 0.0000000000000000e+00 0.0000000000000000e+00  1.0882798224260479e+00 0.0000000000000000e+00 0.0000000000000000e+00  1.0944676171994252e+00 -2.8766819980562265e-03 0.0000000000000000e+00  1.0997958674540185e+00 -5.9685742367167520e-03 0.0000000000000000e+00  1.1104302251522664e+00 -9.4232595869417814e-03 0.0000000000000000e+00  1.1287498456707781e+00 -1.3414590483668047e-02 0.0000000000000000e+00  1.1590418059562706e+00 -1.6629636249654526e-02 0.0000000000000000e+00  1.1868280753142566e+00 -1.9278292389662235e-02 0.0000000000000000e+00  1.1856863085382026e+00 -1.2091153990020902e-02 0.0000000000000000e+00  1.1290299707534275e+00 3.3791836396736214e-03 0.0000000000000000e+00  1.0117317071959455e+00 3.2422094894317334e-02 0.0000000000000000e+00  8.6817499005382370e-01 6.7214277466936839e-02 0.0000000000000000e+00  7.5539105963720932e-01 9.6365532515530677e-02 0.0000000000000000e+00  7.0656610632403039e-01 1.0903208191908105e-01 0.0000000000000000e+00  7.2256054116537893e-01 1.0428085388292463e-01 0.0000000000000000e+00  7.7644294887296739e-01 9.4963270449137882e-02 0.0000000000000000e+00  8.4401851403360340e-01 7.1363795938703900e-02 0.0000000000000000e+00  9.0445765641017228e-01 4.5478455598021716e-02 0.0000000000000000e+00  9.5553690646559575e-01 2.7703542583342899e-02 0.0000000000000000e+00  9.9897072335064618e-01 1.8694375371288333e-02 0.0000000000000000e+00  1.0305607775344989e+00 1.6317044444430696e-02 0.0000000000000000e+00  1.0517008159957686e+00 1.2950908561892792e-02 0.0000000000000000e+00  1.0633851480371206e+00 9.8502438401447453e-03 0.0000000000000000e+00  1.0700453676891812e+00 6.5823039325153161e-03 0.0000000000000000e+00  1.0725758279790751e+00 3.2255693565077168e-03 0.0000000000000000e+00  1.0705460826985220e+00 0.0000000000000000e+00 0.0000000000000000e+00  1.0702788281798519e+00 0.0000000000000000e+00 0.0000000000000000e+00  1.0713057133512502e+00 0.0000000000000000e+00 0.0000000000000000e+00  1.0731442629658634e+00 0.0000000000000000e+00 0.0000000000000000e+00  1.0738996053722318e+00 0.0000000000000000e+00 0.0000000000000000e+00  1.0738567854486154e+00 0.0000000000000000e+00 0.0000000000000000e+00  1.0724064872407979e+00 0.0000000000000000e+00 0.0000000000000000e+00  1.0693351972481582e+00 0.0000000000000000e+00 0.0000000000000000e+00  1.0644724027370340e+00 0.0000000000000000e+00 0.0000000000000000e+00  1.0596105307689483e+00 0.0000000000000000e+00 0.0000000000000000e+00  1.0554968079040494e+00 0.0000000000000000e+00 0.0000000000000000e+00  1.0527590835193688e+00 0.0000000000000000e+00 0.0000000000000000e+00  1.0522469716027469e+00 0.0000000000000000e+00 0.0000000000000000e+00  1.0543609466319734e+00 0.0000000000000000e+00 0.0000000000000000e+00  1.0572637564872021e+00 0.0000000000000000e+00 0.0000000000000000e+00  1.0615206314603944e+00 0.0000000000000000e+00 0.0000000000000000e+00  1.0640407842384130e+00 0.0000000000000000e+00 0.0000000000000000e+00  1.0656790558294587e+00 0.0000000000000000e+00 0.0000000000000000e+00  1.0651464791933700e+00 0.0000000000000000e+00 0.0000000000000000e+00  1.0633090932505116e+00 0.0000000000000000e+00 0.0000000000000000e+00  1.0599138799119756e+00 0.0000000000000000e+00 0.0000000000000000e+00  1.0553780504220274e+00 0.0000000000000000e+00 0.0000000000000000e+00  1.0519803605311073e+00 0.0000000000000000e+00 0.0000000000000000e+00  1.0483224774147799e+00 0.0000000000000000e+00 0.0000000000000000e+00  1.0497846818500529e+00 0.0000000000000000e+00 0.0000000000000000e+00  1.0517664838899878e+00 0.0000000000000000e+00 0.0000000000000000e+00  1.0562320558846714e+00 0.0000000000000000e+00 0.0000000000000000e+00  1.0615667705926359e+00 0.0000000000000000e+00 0.0000000000000000e+00  1.0645025862487032e+00 0.0000000000000000e+00 0.0000000000000000e+00  1.0637698921604488e+00 0.0000000000000000e+00 0.0000000000000000e+00  1.0631286821291213e+00 0.0000000000000000e+00 0.0000000000000000e+00  1.0603283242342847e+00 0.0000000000000000e+00 0.0000000000000000e+00  1.0554570429085059e+00 0.0000000000000000e+00 0.0000000000000000e+00  1.0510135561138521e+00 0.0000000000000000e+00 0.0000000000000000e+00  1.0473183085931204e+00 0.0000000000000000e+00 0.0000000000000000e+00  1.0445131425212790e+00 0.0000000000000000e+00 0.0000000000000000e+00  1.0445615179760031e+00 0.0000000000000000e+00 0.0000000000000000e+00  1.0466499655226171e+00 0.0000000000000000e+00 0.0000000000000000e+00  1.0494291772627804e+00 0.0000000000000000e+00 0.0000000000000000e+00  1.0542943025846718e+00 0.0000000000000000e+00 0.0000000000000000e+00  1.0587640479123006e+00 0.0000000000000000e+00 0.0000000000000000e+00  1.0610945486639913e+00 0.0000000000000000e+00 0.0000000000000000e+00  1.0621311081708298e+00 0.0000000000000000e+00 0.0000000000000000e+00  1.0605610037811106e+00 0.0000000000000000e+00 0.0000000000000000e+00  1.0557219576633594e+00 0.0000000000000000e+00 0.0000000000000000e+00  1.0510048653831618e+00 0.0000000000000000e+00 0.0000000000000000e+00  1.0459129201200181e+00 0.0000000000000000e+00 0.0000000000000000e+00  1.0408898019400872e+00 0.0000000000000000e+00 0.0000000000000000e+00  1.0382508722382704e+00 0.0000000000000000e+00 0.0000000000000000e+00  1.0380068144542733e+00 0.0000000000000000e+00 0.0000000000000000e+00  1.0399470418751946e+00 0.0000000000000000e+00 0.0000000000000000e+00  1.0443671716904879e+00 0.0000000000000000e+00 0.0000000000000000e+00  1.0502374842332558e+00 0.0000000000000000e+00 0.0000000000000000e+00  1.0561975534758827e+00 0.0000000000000000e+00 0.0000000000000000e+00  1.0623792754170742e+00 0.0000000000000000e+00 0.0000000000000000e+00  1.0660119061951265e+00 0.0000000000000000e+00 0.0000000000000000e+00  1.0681873750346333e+00 0.0000000000000000e+00 0.0000000000000000e+00  1.0694453700739563e+00 0.0000000000000000e+00 0.0000000000000000e+00  1.0692302382769965e+00 0.0000000000000000e+00 0.0000000000000000e+00  1.0680701895138889e+00 0.0000000000000000e+00 0.0000000000000000e+00  1.0669274268036077e+00 0.0000000000000000e+00 0.0000000000000000e+00  1.0673131828846449e+00 0.0000000000000000e+00 0.0000000000000000e+00  1.0699747517338989e+00 0.0000000000000000e+00 0.0000000000000000e+00  1.0733289665153349e+00 0.0000000000000000e+00 0.0000000000000000e+00  1.0774962242607766e+00 0.0000000000000000e+00 0.0000000000000000e+00  1.0834216222021509e+00 0.0000000000000000e+00 0.0000000000000000e+00  1.0871337931409082e+00 0.0000000000000000e+00 0.0000000000000000e+00  1.0904303157696391e+00 0.0000000000000000e+00 0.0000000000000000e+00  1.0914828034252915e+00 0.0000000000000000e+00 0.0000000000000000e+00  1.0897781738472667e+00 0.0000000000000000e+00 0.0000000000000000e+00  1.0860285857745851e+00 0.0000000000000000e+00 0.0000000000000000e+00  1.0807027706360126e+00 0.0000000000000000e+00 0.0000000000000000e+00  1.0739559329459225e+00 0.0000000000000000e+00 0.0000000000000000e+00  1.0655104110781761e+00 0.0000000000000000e+00 0.0000000000000000e+00  1.0576899243094160e+00 0.0000000000000000e+00 0.0000000000000000e+00  1.0492019642245245e+00 0.0000000000000000e+00 0.0000000000000000e+00  1.0333264093170671e+00 0.0000000000000000e+00 0.0000000000000000e+00  1.0266294119683790e+00 0.0000000000000000e+00 0.0000000000000000e+00  1.0213580820219661e+00 0.0000000000000000e+00 0.0000000000000000e+00  1.0166681025516267e+00 0.0000000000000000e+00 0.0000000000000000e+00  1.0128278105680251e+00 0.0000000000000000e+00 0.0000000000000000e+00  1.0097999782962976e+00 0.0000000000000000e+00 0.0000000000000000e+00  1.0074778479476560e+00 0.0000000000000000e+00 0.0000000000000000e+00  1.0052056616494278e+00 0.0000000000000000e+00 0.0000000000000000e+00  1.0036126453895298e+00 0.0000000000000000e+00 0.0000000000000000e+00  1.0024694708420860e+00 0.0000000000000000e+00 0.0000000000000000e+00  1.0012023878931640e+00 0.0000000000000000e+00 0.0000000000000000e+00  1.0009925584008130e+00 0.0000000000000000e+00 0.0000000000000000e+00  9.9992028315778991e-01 0.0000000000000000e+00 0.0000000000000000e+00  9.9992021210017135e-01 0.0000000000000000e+00 0.0000000000000000e+00  9.9959073646119823e-01 0.0000000000000000e+00 0.0000000000000000e+00  1.0003404598127523e+00 0.0000000000000000e+00 0.0000000000000000e+00  1.0001776753433795e+00 0.0000000000000000e+00 0.0000000000000000e+00  9.9978663941178558e-01 0.0000000000000000e+00 0.0000000000000000e+00  1.0000001312965585e+00 0.0000000000000000e+00 0.0000000000000000e+00  1.0000001312965585e+00 0.0000000000000000e+00 0.0000000000000000e+00  1.0000001312965585e+00 0.0000000000000000e+00 0.0000000000000000e+00  1.0000001312965585e+00 0.0000000000000000e+00 0.0000000000000000e+00  1.0000001312965585e+00 0.0000000000000000e+00 0.0000000000000000e+00  1.0000001312965585e+00 0.0000000000000000e+00 0.0000000000000000e+00  1.0000001312965585e+00 0.0000000000000000e+00 0.0000000000000000e+00  1.0000001312965585e+00 0.0000000000000000e+00 0.0000000000000000e+00  1.0000001312965585e+00 0.0000000000000000e+00 0.0000000000000000e+00  1.0000001312965585e+00 0.0000000000000000e+00 0.0000000000000000e+00  1.0000001312965585e+00 0.0000000000000000e+00 0.0000000000000000e+00  1.0000001312965585e+00 0.0000000000000000e+00 0.0000000000000000e+00  1.0000001312965585e+00 0.0000000000000000e+00 0.0000000000000000e+00  1.0000001312965585e+00 0.0000000000000000e+00 0.0000000000000000e+00  1.0000001312965585e+00 0.0000000000000000e+00 0.0000000000000000e+00  1.0000001312965585e+00 0.0000000000000000e+00 0.0000000000000000e+00  1.0000001312965585e+00 0.0000000000000000e+00 0.0000000000000000e+00  1.0000001312965585e+00 0.0000000000000000e+00 0.0000000000000000e+00  1.0000001312965585e+00 0.0000000000000000e+00 0.0000000000000000e+00  1.0000001312965585e+00 0.0000000000000000e+00 0.0000000000000000e+00  1.0391711118137670e+00 -8.8928365424535850e-03 0.0000000000000000e+00  1.0363801896089793e+00 -1.8006444257901901e-02 0.0000000000000000e+00  1.0345161031585788e+00 -2.8031127707130333e-02 0.0000000000000000e+00  1.0294083491598871e+00 -3.8476379039403708e-02 0.0000000000000000e+00  1.0244647678578414e+00 -5.2681914587079090e-02 0.0000000000000000e+00  1.0289300832544892e+00 -5.5627764569428126e-02 0.0000000000000000e+00  1.0329168491170759e+00 -5.8609703284052718e-02 0.0000000000000000e+00  1.0379080232900333e+00 -6.1212688637449462e-02 0.0000000000000000e+00  1.0430799410071152e+00 -6.3620843762674614e-02 0.0000000000000000e+00  1.0488100767777764e+00 -6.5529983060186467e-02 0.0000000000000000e+00  1.0550322618411720e+00 -6.7043071907851887e-02 0.0000000000000000e+00  1.0615465200025618e+00 -6.7836784391721791e-02 0.0000000000000000e+00  1.0684643477437739e+00 -6.8022156843929801e-02 0.0000000000000000e+00  1.0752829177582692e+00 -6.7278899183508434e-02 0.0000000000000000e+00  1.0822433797717363e+00 -6.5899746789485764e-02 0.0000000000000000e+00  1.0889504306455675e+00 -6.3809003386504595e-02 0.0000000000000000e+00  1.0955216961789855e+00 -6.0666538420965047e-02 0.0000000000000000e+00  1.1014117156280805e+00 -5.6675043051821444e-02 0.0000000000000000e+00  1.1066655349527652e+00 -5.2216168686771924e-02 0.0000000000000000e+00  1.1111512260390268e+00 -4.7190889449194293e-02 0.0000000000000000e+00  1.1146873467896903e+00 -4.1809862430343937e-02 0.0000000000000000e+00  1.1172132670988379e+00 -3.6227017098441561e-02 0.0000000000000000e+00  1.1188643145258657e+00 -3.0793103618354561e-02 0.0000000000000000e+00  1.1195527168748456e+00 -2.5384603914627504e-02 0.0000000000000000e+00  1.1194224903426346e+00 -2.0713778830950550e-02 0.0000000000000000e+00  1.1185657042945001e+00 -1.6251558471579709e-02 0.0000000000000000e+00  1.1171177967547719e+00 -1.2544742692731058e-02 0.0000000000000000e+00  1.1154453219824290e+00 -9.7896270235173256e-03 0.0000000000000000e+00  1.1136000583519454e+00 -7.8942760308778771e-03 0.0000000000000000e+00  1.1118404639928627e+00 -6.8243733773435868e-03 0.0000000000000000e+00  1.1104008429045451e+00 -6.3873281494434614e-03 0.0000000000000000e+00  1.1095541769787625e+00 -6.6370621297669012e-03 0.0000000000000000e+00  1.1092691714193530e+00 -7.2749284713539497e-03 0.0000000000000000e+00  1.1098948631695205e+00 -8.0583939720513826e-03 0.0000000000000000e+00  1.1113855216656456e+00 -8.8272436446838725e-03 0.0000000000000000e+00  1.1136812140158276e+00 -9.1726599699895