<?xml version="1.0"?>
<VTKFile type="UnstructuredGrid"  version="0.1"  >
<UnstructuredGrid>
<Piece  NumberOfPoints="10199" NumberOfCells="20110">
<Points>
<DataArray  type="Float64"  NumberOfComponents="3"  format="ascii">0 -5 0  8 -5 0  30 -5 0  40 -5 0  40 5 0  30 5 0  8 5 0  0 5 0  8 -2.5 0  15 -2.5 0  30 -2.5 0  30 2.5 0  15 2.5 0  8 2.5 0  10 0.5 0  10 -0.5 0  0 0 0  0.4210526315780956 -5 0  0.8421052631563433 -5 0  1.263157894734281 -5 0  1.684210526311999 -5 0  2.105263157889717 -5 0  2.526315789467435 -5 0  2.947368421045153 -5 0  3.368421052622872 -5 0  3.78947368420059 -5 0  4.210526315779479 -5 0  4.631578947359537 -5 0  5.052631578939595 -5 0  5.473684210519653 -5 0  5.89473684209971 -5 0  6.315789473679768 -5 0  6.736842105259826 -5 0  7.157894736839884 -5 0  7.578947368419942 -5 0  8.407407407405314 -5 0  8.814814814810628 -5 0  9.222222222215942 -5 0  9.629629629621256 -5 0  10.03703703702657 -5 0  10.44444444443188 -5 0  10.8518518518372 -5 0  11.25925925924251 -5 0  11.66666666664783 -5 0  12.07407407405314 -5 0  12.48148148145846 -5 0  12.88888888886377 -5 0  13.29629629626908 -5 0  13.7037037036744 -5 0  14.11111111107971 -5 0  14.51851851848502 -5 0  14.92592592589034 -5 0  15.33333333329565 -5 0  15.74074074070096 -5 0  16.14814814810754 -5 0  16.55555555551614 -5 0  16.96296296292474 -5 0  17.37037037033335 -5 0  17.77777777774195 -5 0  18.18518518515056 -5 0  18.59259259255916 -5 0  18.99999999996776 -5 0  19.40740740737636 -5 0  19.81481481478497 -5 0  20.22222222219357 -5 0  20.62962962960217 -5 0  21.03703703701077 -5 0  21.44444444441937 -5 0  21.85185185182797 -5 0  22.25925925923657 -5 0  22.66666666664518 -5 0  23.07407407405378 -5 0  23.48148148146238 -5 0  23.88888888887098 -5 0  24.29629629627958 -5 0  24.70370370368818 -5 0  25.11111111109678 -5 0  25.51851851850539 -5 0  25.92592592591399 -5 0  26.33333333332259 -5 0  26.74074074073119 -5 0  27.14814814813979 -5 0  27.55555555554839 -5 0  27.96296296295699 -5 0  28.3703703703656 -5 0  28.7777777777742 -5 0  29.1851851851828 -5 0  29.5925925925914 -5 0  30.41666666667852 -5 0  30.83333333335704 -5 0  31.25000000003556 -5 0  31.66666666671408 -5 0  32.08333333338936 -5 0  32.50000000005308 -5 0  32.9166666667168 -5 0  33.33333333338052 -5 0  33.75000000004424 -5 0  34.16666666670795 -5 0  34.58333333337167 -5 0  35.00000000003539 -5 0  35.41666666669911 -5 0  35.83333333336282 -5 0  36.25000000002654 -5 0  36.66666666669026 -5 0  37.08333333335398 -5 0  37.50000000001769 -5 0  37.91666666668141 -5 0  38.33333333334513 -5 0  38.75000000000885 -5 0  39.16666666667257 -5 0  39.58333333333628 -5 0  40 -4.583333333332821 0  40 -4.166666666665642 0  40 -3.74999999999855 0  40 -3.333333333333135 0  40 -2.916666666667806 0  40 -2.500000000002478 0  40 -2.083333333337148 0  40 -1.666666666671818 0  40 -1.250000000006488 0  40 -0.8333333333405228 0  40 -0.4166666666733416 0  40 -6.163070054299169e-12 0  40 0.4166666666610173 0  40 0.8333333333281976 0  40 1.249999999995378 0  40 1.666666666662558 0  40 2.083333333329739 0  40 2.499999999996919 0  40 2.916666666664099 0  40 3.33333333333128 0  40 3.74999999999846 0  40 4.166666666665641 0  40 4.583333333332821 0  39.58333333333628 5 0  39.16666666667256 5 0  38.75000000000885 5 0  38.33333333334513 5 0  37.91666666668141 5 0  37.50000000001769 5 0  37.08333333335398 5 0  36.66666666669025 5 0  36.25000000002654 5 0  35.83333333336282 5 0  35.41666666669911 5 0  35.00000000003539 5 0  34.58333333337167 5 0  34.16666666670795 5 0  33.75000000004424 5 0  33.33333333338052 5 0  32.9166666667168 5 0  32.50000000005308 5 0  32.08333333338936 5 0  31.66666666671408 5 0  31.25000000003556 5 0  30.83333333335704 5 0  30.41666666667852 5 0  29.59259259259259 5 0  29.18518518518519 5 0  28.77777777777778 5 0  28.37037037037037 5 0  27.96296296296296 5 0  27.55555555555556 5 0  27.14814814814815 5 0  26.74074074074074 5 0  26.33333333333333 5 0  25.92592592592593 5 0  25.51851851851852 5 0  25.11111111111111 5 0  24.7037037037037 5 0  24.2962962962963 5 0  23.88888888888889 5 0  23.48148148148148 5 0  23.07407407407408 5 0  22.66666666666667 5 0  22.25925925925926 5 0  21.85185185185185 5 0  21.44444444444445 5 0  21.03703703703704 5 0  20.62962962962963 5 0  20.22222222222222 5 0  19.81481481481482 5 0  19.40740740740741 5 0  19 5 0  18.5925925925926 5 0  18.18518518518519 5 0  17.77777777777778 5 0  17.37037037037037 5 0  16.96296296296296 5 0  16.55555555555556 5 0  16.14814814814815 5 0  15.74074074074074 5 0  15.33333333333333 5 0  14.92592592592593 5 0  14.51851851851852 5 0  14.11111111111111 5 0  13.70370370370371 5 0  13.2962962962963 5 0  12.88888888888889 5 0  12.48148148148148 5 0  12.07407407407408 5 0  11.66666666666667 5 0  11.25925925925926 5 0  10.85185185185185 5 0  10.44444444444445 5 0  10.03703703703704 5 0  9.629629629629633 5 0  9.222222222222221 5 0  8.814814814814817 5 0  8.407407407407408 5 0  7.5789473684193 5 0  7.157894736838599 5 0  6.73684210526082 5 0  6.315789473684795 5 0  5.894736842108769 5 0  5.473684210532742 5 0  5.052631578956715 5 0  4.631578947380689 5 0  4.210526315804662 5 0  3.789473684226299 5 0  3.368421052645599 5 0  2.947368421064898 5 0  2.526315789484198 5 0  2.105263157903499 5 0  1.6842105263228 5 0  1.2631578947421 5 0  0.8421052631613994 5 0  0.4210526315806993 5 0  0 4.545454545454545 0  0 4.09090909090909 0  0 3.636363636363634 0  0 3.18181818181818 0  0 2.727272727272726 0  0 2.272727272727271 0  0 1.818181818181817 0  0 1.363636363636363 0  0 0.9090909090909092 0  0 0.454545454545455 0  0 -0.4545454545450807 0  0 -0.9090909090895867 0  0 -1.363636363633713 0  0 -1.818181818177841 0  0 -2.272727272723127 0  0 -2.727272727269273 0  0 -3.181818181815419 0  0 -3.636363636361564 0  0 -4.090909090907709 0  0 -4.545454545453855 0  8 -4.499999999999999 0  8 -3.999999999999999 0  8 -3.499999999999999 0  8 -3 0  8.137254901963859 -2.5 0  8.274509803926303 -2.5 0  8.411764705886863 -2.5 0  8.549019607849138 -2.5 0  8.686274509809513 -2.5 0  8.82352941176989 -2.5 0  8.960784313730265 -2.5 0  9.098039215690642 -2.5 0  9.235294117651017 -2.5 0  9.372549019611395 -2.5 0  9.50980392157177 -2.5 0  9.647058823532147 -2.5 0  9.784313725492522 -2.5 0  9.921568627452897 -2.5 0  10.05882352941327 -2.5 0  10.19607843137365 -2.5 0  10.33333333333402 -2.5 0  10.4705882352944 -2.5 0  10.60784313725478 -2.5 0  10.74509803921515 -2.5 0  10.88235294117553 -2.5 0  11.0196078431359 -2.5 0  11.15686274509628 -2.5 0  11.29411764705665 -2.5 0  11.43137254901703 -2.5 0  11.56862745097915 -2.5 0  11.70588235294301 -2.5 0  11.84313725490686 -2.5 0  11.98039215687072 -2.5 0  12.11764705883209 -2.5 0  12.25490196079247 -2.5 0  12.39215686275285 -2.5 0  12.52941176471322 -2.5 0  12.6666666666736 -2.5 0  12.80392156863397 -2.5 0  12.94117647059435 -2.5 0  13.07843137255473 -2.5 0  13.2156862745151 -2.5 0  13.35294117647548 -2.5 0  13.49019607843586 -2.5 0  13.62745098039623 -2.5 0  13.76470588235661 -2.5 0  13.90196078431699 -2.5 0  14.03921568627736 -2.5 0  14.17647058823774 -2.5 0  14.31372549019812 -2.5 0  14.45098039215849 -2.5 0  14.58823529411887 -2.5 0  14.72549019607925 -2.5 0  14.86274509803962 -2.5 0  15.20270270270254 -2.5 0  15.40540540540509 -2.5 0  15.60810810810763 -2.5 0  15.81081081081017 -2.5 0  16.01351351351227 -2.5 0  16.21621621621265 -2.5 0  16.41891891891279 -2.5 0  16.62162162161294 -2.5 0  16.82432432431308 -2.5 0  17.02702702701322 -2.5 0  17.22972972971337 -2.5 0  17.43243243241351 -2.5 0  17.63513513511365 -2.5 0  17.83783783781379 -2.5 0  18.04054054051394 -2.5 0  18.24324324321408 -2.5 0  18.44594594591422 -2.5 0  18.64864864861436 -2.5 0  18.85135135131451 -2.5 0  19.05405405401465 -2.5 0  19.25675675671479 -2.5 0  19.45945945941494 -2.5 0  19.66216216211508 -2.5 0  19.86486486481522 -2.5 0  20.06756756751536 -2.5 0  20.27027027021551 -2.5 0  20.47297297291565 -2.5 0  20.6756756756158 -2.5 0  20.87837837831594 -2.5 0  21.08108108101608 -2.5 0  21.28378378371622 -2.5 0  21.48648648641637 -2.5 0  21.68918918911651 -2.5 0  21.89189189181666 -2.5 0  22.0945945945168 -2.5 0  22.29729729721694 -2.5 0  22.49999999991778 -2.5 0  22.70270270262203 -2.5 0  22.90540540532697 -2.5 0  23.10810810803191 -2.5 0  23.31081081073686 -2.5 0  23.5135135134418 -2.5 0  23.71621621614674 -2.5 0  23.91891891885169 -2.5 0  24.12162162155663 -2.5 0  24.32432432426158 -2.5 0  24.52702702696652 -2.5 0  24.72972972967146 -2.5 0  24.93243243237641 -2.5 0  25.13513513508135 -2.5 0  25.3378378377863 -2.5 0  25.54054054049124 -2.5 0  25.74324324319618 -2.5 0  25.94594594590112 -2.5 0  26.14864864860607 -2.5 0  26.35135135131101 -2.5 0  26.55405405401596 -2.5 0  26.7567567567209 -2.5 0  26.95945945942584 -2.5 0  27.16216216213079 -2.5 0  27.36486486483573 -2.5 0  27.56756756754068 -2.5 0  27.77027027024562 -2.5 0  27.97297297295056 -2.5 0  28.1756756756555 -2.5 0  28.37837837836045 -2.5 0  28.5810810810654 -2.5 0  28.78378378377034 -2.5 0  28.98648648647528 -2.5 0  29.18918918918023 -2.5 0  29.39189189188517 -2.5 0  29.59459459459011 -2.5 0  29.79729729729506 -2.5 0  30 -3.000000000000001 0  30 -3.500000000000001 0  30 -4.000000000000001 0  30 -4.5 0  8 4.499999999999999 0  8 3.999999999999999 0  8 3.499999999999999 0  8 3 0  8.137254901963859 2.5 0  8.274509803926303 2.5 0  8.411764705886863 2.5 0  8.549019607849138 2.5 0  8.686274509809513 2.5 0  8.82352941176989 2.5 0  8.960784313730265 2.5 0  9.098039215690642 2.5 0  9.235294117651017 2.5 0  9.372549019611395 2.5 0  9.50980392157177 2.5 0  9.647058823532147 2.5 0  9.784313725492522 2.5 0  9.921568627452897 2.5 0  10.05882352941327 2.5 0  10.19607843137365 2.5 0  10.33333333333402 2.5 0  10.4705882352944 2.5 0  10.60784313725478 2.5 0  10.74509803921515 2.5 0  10.88235294117553 2.5 0  11.0196078431359 2.5 0  11.15686274509628 2.5 0  11.29411764705665 2.5 0  11.43137254901703 2.5 0  11.56862745097915 2.5 0  11.70588235294301 2.5 0  11.84313725490686 2.5 0  11.98039215687072 2.5 0  12.11764705883209 2.5 0  12.25490196079247 2.5 0  1
[...]
<PointData  Vectors="f_17"> 
<DataArray  type="Float64"  Name="f_17"  NumberOfComponents="3" format="ascii">1.0000001309152837e+00 0.0000000000000000e+00 0.0000000000000000e+00  1.0409570549308367e+00 0.0000000000000000e+00 0.0000000000000000e+00  1.0781043369443319e+00 0.0000000000000000e+00 0.0000000000000000e+00  1.1362997648283888e+00 0.0000000000000000e+00 0.0000000000000000e+00  1.1048120582122822e+00 0.0000000000000000e+00 0.0000000000000000e+00  1.0615628458567488e+00 0.0000000000000000e+00 0.0000000000000000e+00  1.0405583185794034e+00 0.0000000000000000e+00 0.0000000000000000e+00  1.0000001309152837e+00 0.0000000000000000e+00 0.0000000000000000e+00  1.0236577722673945e+00 -5.0330411443220931e-02 0.0000000000000000e+00  1.0918612459670853e+00 8.5385651474118085e-02 0.0000000000000000e+00  1.1728771690595876e+00 -1.8553084006973045e-02 0.0000000000000000e+00  9.9587156120176556e-01 -1.1011479672455369e-02 0.0000000000000000e+00  1.0148217404963336e+00 4.2593254274931623e-02 0.0000000000000000e+00  1.0192170285769218e+00 5.2012469019050579e-02 0.0000000000000000e+00  0.0000000000000000e+00 0.0000000000000000e+00 0.0000000000000000e+00  0.0000000000000000e+00 0.0000000000000000e+00 0.0000000000000000e+00  1.0000001309152837e+00 0.0000000000000000e+00 0.0000000000000000e+00  9.9930943701858066e-01 0.0000000000000000e+00 0.0000000000000000e+00  9.9881590595833936e-01 0.0000000000000000e+00 0.0000000000000000e+00  1.0009492022047746e+00 0.0000000000000000e+00 0.0000000000000000e+00  1.0008502328174880e+00 0.0000000000000000e+00 0.0000000000000000e+00  1.0019050484399648e+00 0.0000000000000000e+00 0.0000000000000000e+00  1.0022803298539504e+00 0.0000000000000000e+00 0.0000000000000000e+00  1.0025921514315930e+00 0.0000000000000000e+00 0.0000000000000000e+00  1.0033907105320901e+00 0.0000000000000000e+00 0.0000000000000000e+00  1.0045725612501972e+00 0.0000000000000000e+00 0.0000000000000000e+00  1.0056204882626441e+00 0.0000000000000000e+00 0.0000000000000000e+00  1.0070261663890907e+00 0.0000000000000000e+00 0.0000000000000000e+00  1.0091675413649783e+00 0.0000000000000000e+00 0.0000000000000000e+00  1.0114467770412119e+00 0.0000000000000000e+00 0.0000000000000000e+00  1.0153204914822089e+00 0.0000000000000000e+00 0.0000000000000000e+00  1.0169708223320120e+00 0.0000000000000000e+00 0.0000000000000000e+00  1.0214361596263324e+00 0.0000000000000000e+00 0.0000000000000000e+00  1.0280532692657496e+00 0.0000000000000000e+00 0.0000000000000000e+00  1.0332998908977198e+00 0.0000000000000000e+00 0.0000000000000000e+00  1.0485665210258850e+00 0.0000000000000000e+00 0.0000000000000000e+00  1.0565149563564413e+00 0.0000000000000000e+00 0.0000000000000000e+00  1.0637681161155481e+00 0.0000000000000000e+00 0.0000000000000000e+00  1.0713406792729228e+00 0.0000000000000000e+00 0.0000000000000000e+00  1.0773995743939007e+00 0.0000000000000000e+00 0.0000000000000000e+00  1.0827440315223218e+00 0.0000000000000000e+00 0.0000000000000000e+00  1.0877866113789634e+00 0.0000000000000000e+00 0.0000000000000000e+00  1.0905302950678297e+00 0.0000000000000000e+00 0.0000000000000000e+00  1.0927590052650822e+00 0.0000000000000000e+00 0.0000000000000000e+00  1.0937851049395002e+00 0.0000000000000000e+00 0.0000000000000000e+00  1.0943116598875386e+00 0.0000000000000000e+00 0.0000000000000000e+00  1.0928912917363032e+00 0.0000000000000000e+00 0.0000000000000000e+00  1.0913828496591487e+00 0.0000000000000000e+00 0.0000000000000000e+00  1.0883779346885796e+00 0.0000000000000000e+00 0.0000000000000000e+00  1.0837780994926804e+00 0.0000000000000000e+00 0.0000000000000000e+00  1.0781940928416354e+00 0.0000000000000000e+00 0.0000000000000000e+00  1.0714418515474908e+00 0.0000000000000000e+00 0.0000000000000000e+00  1.0643047505725245e+00 0.0000000000000000e+00 0.0000000000000000e+00  1.0570630751654715e+00 0.0000000000000000e+00 0.0000000000000000e+00  1.0506922909677516e+00 0.0000000000000000e+00 0.0000000000000000e+00  1.0471580323486216e+00 0.0000000000000000e+00 0.0000000000000000e+00  1.0463739596535748e+00 0.0000000000000000e+00 0.0000000000000000e+00  1.0467918511104291e+00 0.0000000000000000e+00 0.0000000000000000e+00  1.0501819527282963e+00 0.0000000000000000e+00 0.0000000000000000e+00  1.0548138249121684e+00 0.0000000000000000e+00 0.0000000000000000e+00  1.0596043300011775e+00 0.0000000000000000e+00 0.0000000000000000e+00  1.0639855490651191e+00 0.0000000000000000e+00 0.0000000000000000e+00  1.0660073789540385e+00 0.0000000000000000e+00 0.0000000000000000e+00  1.0656984304668873e+00 0.0000000000000000e+00 0.0000000000000000e+00  1.0633933815232017e+00 0.0000000000000000e+00 0.0000000000000000e+00  1.0585616093305330e+00 0.0000000000000000e+00 0.0000000000000000e+00  1.0529391135182837e+00 0.0000000000000000e+00 0.0000000000000000e+00  1.0491831791792867e+00 0.0000000000000000e+00 0.0000000000000000e+00  1.0458327115379438e+00 0.0000000000000000e+00 0.0000000000000000e+00  1.0444334839456677e+00 0.0000000000000000e+00 0.0000000000000000e+00  1.0465343152693418e+00 0.0000000000000000e+00 0.0000000000000000e+00  1.0499157728390818e+00 0.0000000000000000e+00 0.0000000000000000e+00  1.0546782766326308e+00 0.0000000000000000e+00 0.0000000000000000e+00  1.0615441873563216e+00 0.0000000000000000e+00 0.0000000000000000e+00  1.0668103432230356e+00 0.0000000000000000e+00 0.0000000000000000e+00  1.0702295673096642e+00 0.0000000000000000e+00 0.0000000000000000e+00  1.0720991922516661e+00 0.0000000000000000e+00 0.0000000000000000e+00  1.0708503497054622e+00 0.0000000000000000e+00 0.0000000000000000e+00  1.0676556235777417e+00 0.0000000000000000e+00 0.0000000000000000e+00  1.0641052421477617e+00 0.0000000000000000e+00 0.0000000000000000e+00  1.0598086548987471e+00 0.0000000000000000e+00 0.0000000000000000e+00  1.0564540843749108e+00 0.0000000000000000e+00 0.0000000000000000e+00  1.0574424466064702e+00 0.0000000000000000e+00 0.0000000000000000e+00  1.0585257527236518e+00 0.0000000000000000e+00 0.0000000000000000e+00  1.0599404389319149e+00 0.0000000000000000e+00 0.0000000000000000e+00  1.0638827479526589e+00 0.0000000000000000e+00 0.0000000000000000e+00  1.0698015207351168e+00 0.0000000000000000e+00 0.0000000000000000e+00  1.0745131308474243e+00 0.0000000000000000e+00 0.0000000000000000e+00  1.0795294001621569e+00 0.0000000000000000e+00 0.0000000000000000e+00  1.0780306363723084e+00 0.0000000000000000e+00 0.0000000000000000e+00  1.0747763120092206e+00 0.0000000000000000e+00 0.0000000000000000e+00  1.0717569862179430e+00 0.0000000000000000e+00 0.0000000000000000e+00  1.0689403388170060e+00 0.0000000000000000e+00 0.0000000000000000e+00  1.0670865176939510e+00 0.0000000000000000e+00 0.0000000000000000e+00  1.0672666879234534e+00 0.0000000000000000e+00 0.0000000000000000e+00  1.0698048625865049e+00 0.0000000000000000e+00 0.0000000000000000e+00  1.0740985148434528e+00 0.0000000000000000e+00 0.0000000000000000e+00  1.0788013661780851e+00 0.0000000000000000e+00 0.0000000000000000e+00  1.0841355596593125e+00 0.0000000000000000e+00 0.0000000000000000e+00  1.0882361491681358e+00 0.0000000000000000e+00 0.0000000000000000e+00  1.0907151257456478e+00 0.0000000000000000e+00 0.0000000000000000e+00  1.0921311850083777e+00 0.0000000000000000e+00 0.0000000000000000e+00  1.0921716101240562e+00 0.0000000000000000e+00 0.0000000000000000e+00  1.0920442558718246e+00 0.0000000000000000e+00 0.0000000000000000e+00  1.0912485367152860e+00 0.0000000000000000e+00 0.0000000000000000e+00  1.0919673968282058e+00 0.0000000000000000e+00 0.0000000000000000e+00  1.0942527329498011e+00 0.0000000000000000e+00 0.0000000000000000e+00  1.0994103561488091e+00 0.0000000000000000e+00 0.0000000000000000e+00  1.1064810972085879e+00 0.0000000000000000e+00 0.0000000000000000e+00  1.1163081496770932e+00 0.0000000000000000e+00 0.0000000000000000e+00  1.1261193439771244e+00 0.0000000000000000e+00 0.0000000000000000e+00  1.1379883532465020e+00 -9.4667900209820764e-03 0.0000000000000000e+00  1.1423525047652390e+00 -2.0651749591356482e-02 0.0000000000000000e+00  1.1501085131047639e+00 -3.5434399326947516e-02 0.0000000000000000e+00  1.1613472003385219e+00 -5.6862148674338357e-02 0.0000000000000000e+00  1.1809859279397308e+00 -9.0699692793209871e-02 0.0000000000000000e+00  1.1865162580905659e+00 -1.3455724601439209e-01 0.0000000000000000e+00  1.1396853442580719e+00 -1.8081830383780667e-01 0.0000000000000000e+00  1.0313907941445000e+00 -2.1478181657668793e-01 0.0000000000000000e+00  8.7917038313269580e-01 -2.1872878794448533e-01 0.0000000000000000e+00  7.3818811011871988e-01 -1.9313751198575108e-01 0.0000000000000000e+00  6.5506999269793720e-01 -1.6357337544624201e-01 0.0000000000000000e+00  6.4653453171881792e-01 -1.4341840712628801e-01 0.0000000000000000e+00  6.9374956732854054e-01 -1.3217339582186335e-01 0.0000000000000000e+00  7.7515662277041386e-01 -1.2239903790722795e-01 0.0000000000000000e+00  8.6742120206219908e-01 -1.1267020647139028e-01 0.0000000000000000e+00  9.5308198437885805e-01 -9.0118086651097010e-02 0.0000000000000000e+00  1.0158146886198394e+00 -6.4177840301878467e-02 0.0000000000000000e+00  1.0549542771595959e+00 -3.8471546826755507e-02 0.0000000000000000e+00  1.0761644487824706e+00 -1.9233492607517794e-02 0.0000000000000000e+00  1.0894939700632391e+00 -8.3087913536036093e-03 0.0000000000000000e+00  1.0978038618755974e+00 -3.1502182758838650e-03 0.0000000000000000e+00  1.1031760052291437e+00 -1.0845435084802524e-03 0.0000000000000000e+00  1.1048749206294517e+00 -3.0500305567740863e-04 0.0000000000000000e+00  1.1053622763493547e+00 0.0000000000000000e+00 0.0000000000000000e+00  1.1067349700911653e+00 0.0000000000000000e+00 0.0000000000000000e+00  1.1080629253416430e+00 0.0000000000000000e+00 0.0000000000000000e+00  1.1086847782326235e+00 0.0000000000000000e+00 0.0000000000000000e+00  1.1069819563204770e+00 0.0000000000000000e+00 0.0000000000000000e+00  1.1038348401994627e+00 0.0000000000000000e+00 0.0000000000000000e+00  1.0992867219249527e+00 0.0000000000000000e+00 0.0000000000000000e+00  1.0937619498433704e+00 0.0000000000000000e+00 0.0000000000000000e+00  1.0877425649849137e+00 0.0000000000000000e+00 0.0000000000000000e+00  1.0830129253194221e+00 0.0000000000000000e+00 0.0000000000000000e+00  1.0801934658606069e+00 0.0000000000000000e+00 0.0000000000000000e+00  1.0791626294176240e+00 0.0000000000000000e+00 0.0000000000000000e+00  1.0801257235062511e+00 0.0000000000000000e+00 0.0000000000000000e+00  1.0826800547354918e+00 0.0000000000000000e+00 0.0000000000000000e+00  1.0846268417054827e+00 0.0000000000000000e+00 0.0000000000000000e+00  1.0864956609251799e+00 0.0000000000000000e+00 0.0000000000000000e+00  1.0855084785360622e+00 0.0000000000000000e+00 0.0000000000000000e+00  1.0832217881266886e+00 0.0000000000000000e+00 0.0000000000000000e+00  1.0790031198374306e+00 0.0000000000000000e+00 0.0000000000000000e+00  1.0742757283559927e+00 0.0000000000000000e+00 0.0000000000000000e+00  1.0692857286250426e+00 0.0000000000000000e+00 0.0000000000000000e+00  1.0645291968834201e+00 0.0000000000000000e+00 0.0000000000000000e+00  1.0621123708591911e+00 0.0000000000000000e+00 0.0000000000000000e+00  1.0623015947553063e+00 0.0000000000000000e+00 0.0000000000000000e+00  1.0655318385200301e+00 0.0000000000000000e+00 0.0000000000000000e+00  1.0683243004582814e+00 0.0000000000000000e+00 0.0000000000000000e+00  1.0723561577452301e+00 0.0000000000000000e+00 0.0000000000000000e+00  1.0759275309205893e+00 0.0000000000000000e+00 0.0000000000000000e+00  1.0760630030704288e+00 0.0000000000000000e+00 0.0000000000000000e+00  1.0720240657940332e+00 0.0000000000000000e+00 0.0000000000000000e+00  1.0684040164186233e+00 0.0000000000000000e+00 0.0000000000000000e+00  1.0634543603559292e+00 0.0000000000000000e+00 0.0000000000000000e+00  1.0576333113626337e+00 0.0000000000000000e+00 0.0000000000000000e+00  1.0535105784391077e+00 0.0000000000000000e+00 0.0000000000000000e+00  1.0511905736578446e+00 0.0000000000000000e+00 0.0000000000000000e+00  1.0503831415784368e+00 0.0000000000000000e+00 0.0000000000000000e+00  1.0525092366628672e+00 0.0000000000000000e+00 0.0000000000000000e+00  1.0562555343788773e+00 0.0000000000000000e+00 0.0000000000000000e+00  1.0598535487121958e+00 0.0000000000000000e+00 0.0000000000000000e+00  1.0643447085004987e+00 0.0000000000000000e+00 0.0000000000000000e+00  1.0672373104155897e+00 0.0000000000000000e+00 0.0000000000000000e+00  1.0670200533783940e+00 0.0000000000000000e+00 0.0000000000000000e+00  1.0650954256298459e+00 0.0000000000000000e+00 0.0000000000000000e+00  1.0607759909349761e+00 0.0000000000000000e+00 0.0000000000000000e+00  1.0539846397957102e+00 0.0000000000000000e+00 0.0000000000000000e+00  1.0485922991717460e+00 0.0000000000000000e+00 0.0000000000000000e+00  1.0440605717615272e+00 0.0000000000000000e+00 0.0000000000000000e+00  1.0407137747004582e+00 0.0000000000000000e+00 0.0000000000000000e+00  1.0403478141454465e+00 0.0000000000000000e+00 0.0000000000000000e+00  1.0425316867299306e+00 0.0000000000000000e+00 0.0000000000000000e+00  1.0465268688652858e+00 0.0000000000000000e+00 0.0000000000000000e+00  1.0522381583428901e+00 0.0000000000000000e+00 0.0000000000000000e+00  1.0583677281892765e+00 0.0000000000000000e+00 0.0000000000000000e+00  1.0635262510568440e+00 0.0000000000000000e+00 0.0000000000000000e+00  1.0679563756335666e+00 0.0000000000000000e+00 0.0000000000000000e+00  1.0693120452745011e+00 0.0000000000000000e+00 0.0000000000000000e+00  1.0691241921831760e+00 0.0000000000000000e+00 0.0000000000000000e+00  1.0684952296737535e+00 0.0000000000000000e+00 0.0000000000000000e+00  1.0672128876542093e+00 0.0000000000000000e+00 0.0000000000000000e+00  1.0659573011877377e+00 0.0000000000000000e+00 0.0000000000000000e+00  1.0656139030504961e+00 0.0000000000000000e+00 0.0000000000000000e+00  1.0673818263157919e+00 0.0000000000000000e+00 0.0000000000000000e+00  1.0716606676521991e+00 0.0000000000000000e+00 0.0000000000000000e+00  1.0765470225381666e+00 0.0000000000000000e+00 0.0000000000000000e+00  1.0818343613400392e+00 0.0000000000000000e+00 0.0000000000000000e+00  1.0883778677851441e+00 0.0000000000000000e+00 0.0000000000000000e+00  1.0921575027122852e+00 0.0000000000000000e+00 0.0000000000000000e+00  1.0950732844353814e+00 0.0000000000000000e+00 0.0000000000000000e+00  1.0954220809779214e+00 0.0000000000000000e+00 0.0000000000000000e+00  1.0928700358103878e+00 0.0000000000000000e+00 0.0000000000000000e+00  1.0882413875672601e+00 0.0000000000000000e+00 0.0000000000000000e+00  1.0821024768959313e+00 0.0000000000000000e+00 0.0000000000000000e+00  1.0746881694070274e+00 0.0000000000000000e+00 0.0000000000000000e+00  1.0657142322374440e+00 0.0000000000000000e+00 0.0000000000000000e+00  1.0575263894728910e+00 0.0000000000000000e+00 0.0000000000000000e+00  1.0487923269082813e+00 0.0000000000000000e+00 0.0000000000000000e+00  1.0326865092176014e+00 0.0000000000000000e+00 0.0000000000000000e+00  1.0259577479137334e+00 0.0000000000000000e+00 0.0000000000000000e+00  1.0206754724927158e+00 0.0000000000000000e+00 0.0000000000000000e+00  1.0159896691436585e+00 0.0000000000000000e+00 0.0000000000000000e+00  1.0121577107994870e+00 0.0000000000000000e+00 0.0000000000000000e+00  1.0091465561867683e+00 0.0000000000000000e+00 0.0000000000000000e+00  1.0068511450645605e+00 0.0000000000000000e+00 0.0000000000000000e+00  1.0046127140810612e+00 0.0000000000000000e+00 0.0000000000000000e+00  1.0030743072951283e+00 0.0000000000000000e+00 0.0000000000000000e+00  1.0019933226753837e+00 0.0000000000000000e+00 0.0000000000000000e+00  1.0008073985022030e+00 0.0000000000000000e+00 0.0000000000000000e+00  1.0006812251251096e+00 0.0000000000000000e+00 0.0000000000000000e+00  9.9969676924724027e-01 0.0000000000000000e+00 0.0000000000000000e+00  9.9977280236116051e-01 0.0000000000000000e+00 0.0000000000000000e+00  9.9950747858845301e-01 0.0000000000000000e+00 0.0000000000000000e+00  1.0002999049334949e+00 0.0000000000000000e+00 0.0000000000000000e+00  1.0001646033099238e+00 0.0000000000000000e+00 0.0000000000000000e+00  9.9978569537269235e-01 0.0000000000000000e+00 0.0000000000000000e+00  1.0000001309152837e+00 0.0000000000000000e+00 0.0000000000000000e+00  1.0000001309152837e+00 0.0000000000000000e+00 0.0000000000000000e+00  1.0000001309152837e+00 0.0000000000000000e+00 0.0000000000000000e+00  1.0000001309152837e+00 0.0000000000000000e+00 0.0000000000000000e+00  1.0000001309152837e+00 0.0000000000000000e+00 0.0000000000000000e+00  1.0000001309152837e+00 0.0000000000000000e+00 0.0000000000000000e+00  1.0000001309152837e+00 0.0000000000000000e+00 0.0000000000000000e+00  1.0000001309152837e+00 0.0000000000000000e+00 0.0000000000000000e+00  1.0000001309152837e+00 0.0000000000000000e+00 0.0000000000000000e+00  1.0000001309152837e+00 0.0000000000000000e+00 0.0000000000000000e+00  1.0000001309152837e+00 0.0000000000000000e+00 0.0000000000000000e+00  1.0000001309152837e+00 0.0000000000000000e+00 0.0000000000000000e+00  1.0000001309152837e+00 0.0000000000000000e+00 0.0000000000000000e+00  1.0000001309152837e+00 0.0000000000000000e+00 0.0000000000000000e+00  1.0000001309152837e+00 0.0000000000000000e+00 0.0000000000000000e+00  1.0000001309152837e+00 0.0000000000000000e+00 0.0000000000000000e+00  1.0000001309152837e+00 0.0000000000000000e+00 0.0000000000000000e+00  1.0000001309152837e+00 0.0000000000000000e+00 0.0000000000000000e+00  1.0000001309152837e+00 0.0000000000000000e+00 0.0000000000000000e+00  1.0000001309152837e+00 0.0000000000000000e+00 0.0000000000000000e+00  1.0404245596169290e+00 -8.9568912912070878e-03 0.0000000000000000e+00  1.0377398932775412e+00 -1.8163282306675518e-02 0.0000000000000000e+00  1.0360301665234470e+00 -2.8357644649442577e-02 0.0000000000000000e+00  1.0311132414900930e+00 -3.9059680353149183e-02 0.0000000000000000e+00  1.0264561754416521e+00 -5.3646996149688903e-02 0.0000000000000000e+00  1.0310709390416994e+00 -5.6554825061103355e-02 0.0000000000000000e+00  1.0352017570018834e+00 -5.9483089080737801e-02 0.0000000000000000e+00  1.0403545281740361e+00 -6.2008045197335888e-02 0.0000000000000000e+00  1.0456902952724272e+00 -6.4314772276802337e-02 0.0000000000000000e+00  1.0515934321673206e+00 -6.6094056812747340e-02 0.0000000000000000e+00  1.0579931146490011e+00 -6.7446974708600754e-02 0.0000000000000000e+00  1.0646911888452892e+00 -6.8042724436421120e-02 0.0000000000000000e+00  1.0717935308662139e+00 -6.7993265468022618e-02 0.0000000000000000e+00  1.0787940023794353e+00 -6.6968665791647480e-02 0.0000000000000000e+00  1.0859320659228535e+00 -6.5260132172451940e-02 0.0000000000000000e+00  1.0928087121459740e+00 -6.2783567390974737e-02 0.0000000000000000e+00  1.0995297065516210e+00 -5.9193977702745086e-02 0.0000000000000000e+00  1.1055367681388590e+00 -5.4687174766164838e-02 0.0000000000000000e+00  1.1108697892200463e+00 -4.9638694652195212e-02 0.0000000000000000e+00  1.1153810888429763e+00 -4.3948455690378488e-02 0.0000000000000000e+00  1.1188536416088035e+00 -3.7806056894203161e-02 0.0000000000000000e+00  1.1212270348441320e+00 -3.1394964201637017e-02 0.0000000000000000e+00  1.1225695489776464e+00 -2.5052064440746685e-02 0.0000000000000000e+00  1.1227960384635085e+00 -1.8665252914074702e-02 0.0000000000000000e+00  1.1220020486264586e+00 -1.2998254816565996e-02 0.0000000000000000e+00  1.1202609390563969e+00 -7.5512987271603030e-03 0.0000000000000000e+00  1.1176352475951594e+00 -2.8845966824547964e-03 0.0000000000000000e+00  1.1145395446757287e+00 7.0904900549013678e-04 0.0000000000000000e+00  1.1109560411982349e+00 3.2496280275114892e-03 0.0000000000000000e+00  1.1072029211414669e+00 4.7083417731333937e-03 0.0000000000000000e+00  1.1035230319530462e+00 5.1787567412908062e-03 0.0000000000000000e+00  1.1002390025826987e+00 4.4962505478269958e-03 0.0000000000000000e+00  1.0974167524505400e+00 2.9292855134884100e-03 0.0000000000000000e+00  1.0954839866566766e+00 6.6485486525791034e-04 0.0000000000000000e+00  1.0945784953119253e+00 -2.2326033698553270e-03 0.0000000000000000e+00  1.0947427515854609e+00 -5.32