<?xml version="1.0"?>
<VTKFile type="UnstructuredGrid"  version="0.1"  >
<UnstructuredGrid>
<Piece  NumberOfPoints="10199" NumberOfCells="20110">
<Points>
<DataArray  type="Float64"  NumberOfComponents="3"  format="ascii">0 -5 0  8 -5 0  30 -5 0  40 -5 0  40 5 0  30 5 0  8 5 0  0 5 0  8 -2.5 0  15 -2.5 0  30 -2.5 0  30 2.5 0  15 2.5 0  8 2.5 0  10 0.5 0  10 -0.5 0  0 0 0  0.4210526315780956 -5 0  0.8421052631563433 -5 0  1.263157894734281 -5 0  1.684210526311999 -5 0  2.105263157889717 -5 0  2.526315789467435 -5 0  2.947368421045153 -5 0  3.368421052622872 -5 0  3.78947368420059 -5 0  4.210526315779479 -5 0  4.631578947359537 -5 0  5.052631578939595 -5 0  5.473684210519653 -5 0  5.89473684209971 -5 0  6.315789473679768 -5 0  6.736842105259826 -5 0  7.157894736839884 -5 0  7.578947368419942 -5 0  8.407407407405314 -5 0  8.814814814810628 -5 0  9.222222222215942 -5 0  9.629629629621256 -5 0  10.03703703702657 -5 0  10.44444444443188 -5 0  10.8518518518372 -5 0  11.25925925924251 -5 0  11.66666666664783 -5 0  12.07407407405314 -5 0  12.48148148145846 -5 0  12.88888888886377 -5 0  13.29629629626908 -5 0  13.7037037036744 -5 0  14.11111111107971 -5 0  14.51851851848502 -5 0  14.92592592589034 -5 0  15.33333333329565 -5 0  15.74074074070096 -5 0  16.14814814810754 -5 0  16.55555555551614 -5 0  16.96296296292474 -5 0  17.37037037033335 -5 0  17.77777777774195 -5 0  18.18518518515056 -5 0  18.59259259255916 -5 0  18.99999999996776 -5 0  19.40740740737636 -5 0  19.81481481478497 -5 0  20.22222222219357 -5 0  20.62962962960217 -5 0  21.03703703701077 -5 0  21.44444444441937 -5 0  21.85185185182797 -5 0  22.25925925923657 -5 0  22.66666666664518 -5 0  23.07407407405378 -5 0  23.48148148146238 -5 0  23.88888888887098 -5 0  24.29629629627958 -5 0  24.70370370368818 -5 0  25.11111111109678 -5 0  25.51851851850539 -5 0  25.92592592591399 -5 0  26.33333333332259 -5 0  26.74074074073119 -5 0  27.14814814813979 -5 0  27.55555555554839 -5 0  27.96296296295699 -5 0  28.3703703703656 -5 0  28.7777777777742 -5 0  29.1851851851828 -5 0  29.5925925925914 -5 0  30.41666666667852 -5 0  30.83333333335704 -5 0  31.25000000003556 -5 0  31.66666666671408 -5 0  32.08333333338936 -5 0  32.50000000005308 -5 0  32.9166666667168 -5 0  33.33333333338052 -5 0  33.75000000004424 -5 0  34.16666666670795 -5 0  34.58333333337167 -5 0  35.00000000003539 -5 0  35.41666666669911 -5 0  35.83333333336282 -5 0  36.25000000002654 -5 0  36.66666666669026 -5 0  37.08333333335398 -5 0  37.50000000001769 -5 0  37.91666666668141 -5 0  38.33333333334513 -5 0  38.75000000000885 -5 0  39.16666666667257 -5 0  39.58333333333628 -5 0  40 -4.583333333332821 0  40 -4.166666666665642 0  40 -3.74999999999855 0  40 -3.333333333333135 0  40 -2.916666666667806 0  40 -2.500000000002478 0  40 -2.083333333337148 0  40 -1.666666666671818 0  40 -1.250000000006488 0  40 -0.8333333333405228 0  40 -0.4166666666733416 0  40 -6.163070054299169e-12 0  40 0.4166666666610173 0  40 0.8333333333281976 0  40 1.249999999995378 0  40 1.666666666662558 0  40 2.083333333329739 0  40 2.499999999996919 0  40 2.916666666664099 0  40 3.33333333333128 0  40 3.74999999999846 0  40 4.166666666665641 0  40 4.583333333332821 0  39.58333333333628 5 0  39.16666666667256 5 0  38.75000000000885 5 0  38.33333333334513 5 0  37.91666666668141 5 0  37.50000000001769 5 0  37.08333333335398 5 0  36.66666666669025 5 0  36.25000000002654 5 0  35.83333333336282 5 0  35.41666666669911 5 0  35.00000000003539 5 0  34.58333333337167 5 0  34.16666666670795 5 0  33.75000000004424 5 0  33.33333333338052 5 0  32.9166666667168 5 0  32.50000000005308 5 0  32.08333333338936 5 0  31.66666666671408 5 0  31.25000000003556 5 0  30.83333333335704 5 0  30.41666666667852 5 0  29.59259259259259 5 0  29.18518518518519 5 0  28.77777777777778 5 0  28.37037037037037 5 0  27.96296296296296 5 0  27.55555555555556 5 0  27.14814814814815 5 0  26.74074074074074 5 0  26.33333333333333 5 0  25.92592592592593 5 0  25.51851851851852 5 0  25.11111111111111 5 0  24.7037037037037 5 0  24.2962962962963 5 0  23.88888888888889 5 0  23.48148148148148 5 0  23.07407407407408 5 0  22.66666666666667 5 0  22.25925925925926 5 0  21.85185185185185 5 0  21.44444444444445 5 0  21.03703703703704 5 0  20.62962962962963 5 0  20.22222222222222 5 0  19.81481481481482 5 0  19.40740740740741 5 0  19 5 0  18.5925925925926 5 0  18.18518518518519 5 0  17.77777777777778 5 0  17.37037037037037 5 0  16.96296296296296 5 0  16.55555555555556 5 0  16.14814814814815 5 0  15.74074074074074 5 0  15.33333333333333 5 0  14.92592592592593 5 0  14.51851851851852 5 0  14.11111111111111 5 0  13.70370370370371 5 0  13.2962962962963 5 0  12.88888888888889 5 0  12.48148148148148 5 0  12.07407407407408 5 0  11.66666666666667 5 0  11.25925925925926 5 0  10.85185185185185 5 0  10.44444444444445 5 0  10.03703703703704 5 0  9.629629629629633 5 0  9.222222222222221 5 0  8.814814814814817 5 0  8.407407407407408 5 0  7.5789473684193 5 0  7.157894736838599 5 0  6.73684210526082 5 0  6.315789473684795 5 0  5.894736842108769 5 0  5.473684210532742 5 0  5.052631578956715 5 0  4.631578947380689 5 0  4.210526315804662 5 0  3.789473684226299 5 0  3.368421052645599 5 0  2.947368421064898 5 0  2.526315789484198 5 0  2.105263157903499 5 0  1.6842105263228 5 0  1.2631578947421 5 0  0.8421052631613994 5 0  0.4210526315806993 5 0  0 4.545454545454545 0  0 4.09090909090909 0  0 3.636363636363634 0  0 3.18181818181818 0  0 2.727272727272726 0  0 2.272727272727271 0  0 1.818181818181817 0  0 1.363636363636363 0  0 0.9090909090909092 0  0 0.454545454545455 0  0 -0.4545454545450807 0  0 -0.9090909090895867 0  0 -1.363636363633713 0  0 -1.818181818177841 0  0 -2.272727272723127 0  0 -2.727272727269273 0  0 -3.181818181815419 0  0 -3.636363636361564 0  0 -4.090909090907709 0  0 -4.545454545453855 0  8 -4.499999999999999 0  8 -3.999999999999999 0  8 -3.499999999999999 0  8 -3 0  8.137254901963859 -2.5 0  8.274509803926303 -2.5 0  8.411764705886863 -2.5 0  8.549019607849138 -2.5 0  8.686274509809513 -2.5 0  8.82352941176989 -2.5 0  8.960784313730265 -2.5 0  9.098039215690642 -2.5 0  9.235294117651017 -2.5 0  9.372549019611395 -2.5 0  9.50980392157177 -2.5 0  9.647058823532147 -2.5 0  9.784313725492522 -2.5 0  9.921568627452897 -2.5 0  10.05882352941327 -2.5 0  10.19607843137365 -2.5 0  10.33333333333402 -2.5 0  10.4705882352944 -2.5 0  10.60784313725478 -2.5 0  10.74509803921515 -2.5 0  10.88235294117553 -2.5 0  11.0196078431359 -2.5 0  11.15686274509628 -2.5 0  11.29411764705665 -2.5 0  11.43137254901703 -2.5 0  11.56862745097915 -2.5 0  11.70588235294301 -2.5 0  11.84313725490686 -2.5 0  11.98039215687072 -2.5 0  12.11764705883209 -2.5 0  12.25490196079247 -2.5 0  12.39215686275285 -2.5 0  12.52941176471322 -2.5 0  12.6666666666736 -2.5 0  12.80392156863397 -2.5 0  12.94117647059435 -2.5 0  13.07843137255473 -2.5 0  13.2156862745151 -2.5 0  13.35294117647548 -2.5 0  13.49019607843586 -2.5 0  13.62745098039623 -2.5 0  13.76470588235661 -2.5 0  13.90196078431699 -2.5 0  14.03921568627736 -2.5 0  14.17647058823774 -2.5 0  14.31372549019812 -2.5 0  14.45098039215849 -2.5 0  14.58823529411887 -2.5 0  14.72549019607925 -2.5 0  14.86274509803962 -2.5 0  15.20270270270254 -2.5 0  15.40540540540509 -2.5 0  15.60810810810763 -2.5 0  15.81081081081017 -2.5 0  16.01351351351227 -2.5 0  16.21621621621265 -2.5 0  16.41891891891279 -2.5 0  16.62162162161294 -2.5 0  16.82432432431308 -2.5 0  17.02702702701322 -2.5 0  17.22972972971337 -2.5 0  17.43243243241351 -2.5 0  17.63513513511365 -2.5 0  17.83783783781379 -2.5 0  18.04054054051394 -2.5 0  18.24324324321408 -2.5 0  18.44594594591422 -2.5 0  18.64864864861436 -2.5 0  18.85135135131451 -2.5 0  19.05405405401465 -2.5 0  19.25675675671479 -2.5 0  19.45945945941494 -2.5 0  19.66216216211508 -2.5 0  19.86486486481522 -2.5 0  20.06756756751536 -2.5 0  20.27027027021551 -2.5 0  20.47297297291565 -2.5 0  20.6756756756158 -2.5 0  20.87837837831594 -2.5 0  21.08108108101608 -2.5 0  21.28378378371622 -2.5 0  21.48648648641637 -2.5 0  21.68918918911651 -2.5 0  21.89189189181666 -2.5 0  22.0945945945168 -2.5 0  22.29729729721694 -2.5 0  22.49999999991778 -2.5 0  22.70270270262203 -2.5 0  22.90540540532697 -2.5 0  23.10810810803191 -2.5 0  23.31081081073686 -2.5 0  23.5135135134418 -2.5 0  23.71621621614674 -2.5 0  23.91891891885169 -2.5 0  24.12162162155663 -2.5 0  24.32432432426158 -2.5 0  24.52702702696652 -2.5 0  24.72972972967146 -2.5 0  24.93243243237641 -2.5 0  25.13513513508135 -2.5 0  25.3378378377863 -2.5 0  25.54054054049124 -2.5 0  25.74324324319618 -2.5 0  25.94594594590112 -2.5 0  26.14864864860607 -2.5 0  26.35135135131101 -2.5 0  26.55405405401596 -2.5 0  26.7567567567209 -2.5 0  26.95945945942584 -2.5 0  27.16216216213079 -2.5 0  27.36486486483573 -2.5 0  27.56756756754068 -2.5 0  27.77027027024562 -2.5 0  27.97297297295056 -2.5 0  28.1756756756555 -2.5 0  28.37837837836045 -2.5 0  28.5810810810654 -2.5 0  28.78378378377034 -2.5 0  28.98648648647528 -2.5 0  29.18918918918023 -2.5 0  29.39189189188517 -2.5 0  29.59459459459011 -2.5 0  29.79729729729506 -2.5 0  30 -3.000000000000001 0  30 -3.500000000000001 0  30 -4.000000000000001 0  30 -4.5 0  8 4.499999999999999 0  8 3.999999999999999 0  8 3.499999999999999 0  8 3 0  8.137254901963859 2.5 0  8.274509803926303 2.5 0  8.411764705886863 2.5 0  8.549019607849138 2.5 0  8.686274509809513 2.5 0  8.82352941176989 2.5 0  8.960784313730265 2.5 0  9.098039215690642 2.5 0  9.235294117651017 2.5 0  9.372549019611395 2.5 0  9.50980392157177 2.5 0  9.647058823532147 2.5 0  9.784313725492522 2.5 0  9.921568627452897 2.5 0  10.05882352941327 2.5 0  10.19607843137365 2.5 0  10.33333333333402 2.5 0  10.4705882352944 2.5 0  10.60784313725478 2.5 0  10.74509803921515 2.5 0  10.88235294117553 2.5 0  11.0196078431359 2.5 0  11.15686274509628 2.5 0  11.29411764705665 2.5 0  11.43137254901703 2.5 0  11.56862745097915 2.5 0  11.70588235294301 2.5 0  11.84313725490686 2.5 0  11.98039215687072 2.5 0  12.11764705883209 2.5 0  12.25490196079247 2.5 0  1
[...]
<PointData  Vectors="f_17"> 
<DataArray  type="Float64"  Name="f_17"  NumberOfComponents="3" format="ascii">1.0000001298287284e+00 0.0000000000000000e+00 0.0000000000000000e+00  1.0421875671886758e+00 0.0000000000000000e+00 0.0000000000000000e+00  1.0508814723745408e+00 0.0000000000000000e+00 0.0000000000000000e+00  1.0743857070950857e+00 0.0000000000000000e+00 0.0000000000000000e+00  1.0902503463747890e+00 0.0000000000000000e+00 0.0000000000000000e+00  1.0636298737641481e+00 0.0000000000000000e+00 0.0000000000000000e+00  1.0386573119047910e+00 0.0000000000000000e+00 0.0000000000000000e+00  1.0000001298287284e+00 0.0000000000000000e+00 0.0000000000000000e+00  1.0225521779395985e+00 -5.2474750945313377e-02 0.0000000000000000e+00  1.0763416113332007e+00 -6.1693511200511225e-02 0.0000000000000000e+00  1.0096265634117174e+00 -5.4269651935810792e-02 0.0000000000000000e+00  1.1115824859819878e+00 -5.5167674295220036e-02 0.0000000000000000e+00  1.0403192013235678e+00 -8.8615496858754722e-02 0.0000000000000000e+00  1.0202386639009555e+00 4.9099066017638068e-02 0.0000000000000000e+00  0.0000000000000000e+00 0.0000000000000000e+00 0.0000000000000000e+00  0.0000000000000000e+00 0.0000000000000000e+00 0.0000000000000000e+00  1.0000001298287284e+00 0.0000000000000000e+00 0.0000000000000000e+00  9.9927972776466178e-01 0.0000000000000000e+00 0.0000000000000000e+00  9.9868993214809476e-01 0.0000000000000000e+00 0.0000000000000000e+00  1.0007338760598166e+00 0.0000000000000000e+00 0.0000000000000000e+00  1.0005275042332891e+00 0.0000000000000000e+00 0.0000000000000000e+00  1.0015076962351577e+00 0.0000000000000000e+00 0.0000000000000000e+00  1.0018564959033809e+00 0.0000000000000000e+00 0.0000000000000000e+00  1.0022241186625371e+00 0.0000000000000000e+00 0.0000000000000000e+00  1.0031491916908806e+00 0.0000000000000000e+00 0.0000000000000000e+00  1.0044652675928198e+00 0.0000000000000000e+00 0.0000000000000000e+00  1.0056908284595087e+00 0.0000000000000000e+00 0.0000000000000000e+00  1.0072264687099914e+00 0.0000000000000000e+00 0.0000000000000000e+00  1.0095172458723658e+00 0.0000000000000000e+00 0.0000000000000000e+00  1.0118799215294627e+00 0.0000000000000000e+00 0.0000000000000000e+00  1.0157821743220246e+00 0.0000000000000000e+00 0.0000000000000000e+00  1.0174752414953459e+00 0.0000000000000000e+00 0.0000000000000000e+00  1.0219928401055982e+00 0.0000000000000000e+00 0.0000000000000000e+00  1.0287288569996322e+00 0.0000000000000000e+00 0.0000000000000000e+00  1.0341691329945353e+00 0.0000000000000000e+00 0.0000000000000000e+00  1.0502637220346693e+00 0.0000000000000000e+00 0.0000000000000000e+00  1.0587474521132660e+00 0.0000000000000000e+00 0.0000000000000000e+00  1.0665703834081559e+00 0.0000000000000000e+00 0.0000000000000000e+00  1.0746514117316579e+00 0.0000000000000000e+00 0.0000000000000000e+00  1.0808511226159423e+00 0.0000000000000000e+00 0.0000000000000000e+00  1.0858115052070334e+00 0.0000000000000000e+00 0.0000000000000000e+00  1.0896704351345594e+00 0.0000000000000000e+00 0.0000000000000000e+00  1.0902383216071569e+00 0.0000000000000000e+00 0.0000000000000000e+00  1.0893522457587668e+00 0.0000000000000000e+00 0.0000000000000000e+00  1.0865496516968234e+00 0.0000000000000000e+00 0.0000000000000000e+00  1.0830233004907448e+00 0.0000000000000000e+00 0.0000000000000000e+00  1.0781505648393792e+00 0.0000000000000000e+00 0.0000000000000000e+00  1.0747644501322864e+00 0.0000000000000000e+00 0.0000000000000000e+00  1.0722232353974208e+00 0.0000000000000000e+00 0.0000000000000000e+00  1.0708061152011001e+00 0.0000000000000000e+00 0.0000000000000000e+00  1.0709252970926948e+00 0.0000000000000000e+00 0.0000000000000000e+00  1.0715844432093951e+00 0.0000000000000000e+00 0.0000000000000000e+00  1.0721809730225584e+00 0.0000000000000000e+00 0.0000000000000000e+00  1.0714704974711946e+00 0.0000000000000000e+00 0.0000000000000000e+00  1.0688020207780808e+00 0.0000000000000000e+00 0.0000000000000000e+00  1.0653950497792877e+00 0.0000000000000000e+00 0.0000000000000000e+00  1.0607231709962586e+00 0.0000000000000000e+00 0.0000000000000000e+00  1.0538447489043252e+00 0.0000000000000000e+00 0.0000000000000000e+00  1.0478510614418459e+00 0.0000000000000000e+00 0.0000000000000000e+00  1.0426395898052037e+00 0.0000000000000000e+00 0.0000000000000000e+00  1.0392596339881470e+00 0.0000000000000000e+00 0.0000000000000000e+00  1.0387193725149322e+00 0.0000000000000000e+00 0.0000000000000000e+00  1.0403318525432301e+00 0.0000000000000000e+00 0.0000000000000000e+00  1.0441406947840490e+00 0.0000000000000000e+00 0.0000000000000000e+00  1.0497977068470519e+00 0.0000000000000000e+00 0.0000000000000000e+00  1.0548523026354557e+00 0.0000000000000000e+00 0.0000000000000000e+00  1.0588723877080153e+00 0.0000000000000000e+00 0.0000000000000000e+00  1.0624863068468251e+00 0.0000000000000000e+00 0.0000000000000000e+00  1.0626065197742933e+00 0.0000000000000000e+00 0.0000000000000000e+00  1.0601999539095484e+00 0.0000000000000000e+00 0.0000000000000000e+00  1.0569385537985094e+00 0.0000000000000000e+00 0.0000000000000000e+00  1.0521232293865905e+00 0.0000000000000000e+00 0.0000000000000000e+00  1.0474518668224562e+00 0.0000000000000000e+00 0.0000000000000000e+00  1.0455944108821591e+00 0.0000000000000000e+00 0.0000000000000000e+00  1.0446591691639775e+00 0.0000000000000000e+00 0.0000000000000000e+00  1.0457947372067362e+00 0.0000000000000000e+00 0.0000000000000000e+00  1.0496133160930234e+00 0.0000000000000000e+00 0.0000000000000000e+00  1.0538949139022986e+00 0.0000000000000000e+00 0.0000000000000000e+00  1.0583477229682621e+00 0.0000000000000000e+00 0.0000000000000000e+00  1.0626965474756807e+00 0.0000000000000000e+00 0.0000000000000000e+00  1.0644878247964520e+00 0.0000000000000000e+00 0.0000000000000000e+00  1.0638288675539458e+00 0.0000000000000000e+00 0.0000000000000000e+00  1.0636227229150423e+00 0.0000000000000000e+00 0.0000000000000000e+00  1.0600295618409949e+00 0.0000000000000000e+00 0.0000000000000000e+00  1.0542203520939946e+00 0.0000000000000000e+00 0.0000000000000000e+00  1.0500988684292405e+00 0.0000000000000000e+00 0.0000000000000000e+00  1.0489525593977509e+00 0.0000000000000000e+00 0.0000000000000000e+00  1.0487459385461328e+00 0.0000000000000000e+00 0.0000000000000000e+00  1.0543006345322958e+00 0.0000000000000000e+00 0.0000000000000000e+00  1.0576783338822633e+00 0.0000000000000000e+00 0.0000000000000000e+00  1.0609426473546766e+00 0.0000000000000000e+00 0.0000000000000000e+00  1.0640551416986286e+00 0.0000000000000000e+00 0.0000000000000000e+00  1.0653523844014496e+00 0.0000000000000000e+00 0.0000000000000000e+00  1.0643707527574686e+00 0.0000000000000000e+00 0.0000000000000000e+00  1.0616135751295197e+00 0.0000000000000000e+00 0.0000000000000000e+00  1.0583649058586557e+00 0.0000000000000000e+00 0.0000000000000000e+00  1.0550787113847122e+00 0.0000000000000000e+00 0.0000000000000000e+00  1.0524636854732978e+00 0.0000000000000000e+00 0.0000000000000000e+00  1.0520078855412165e+00 0.0000000000000000e+00 0.0000000000000000e+00  1.0535425338145736e+00 0.0000000000000000e+00 0.0000000000000000e+00  1.0564838013967475e+00 0.0000000000000000e+00 0.0000000000000000e+00  1.0610919744799370e+00 0.0000000000000000e+00 0.0000000000000000e+00  1.0657781157579953e+00 0.0000000000000000e+00 0.0000000000000000e+00  1.0702684961917059e+00 0.0000000000000000e+00 0.0000000000000000e+00  1.0722812623488274e+00 0.0000000000000000e+00 0.0000000000000000e+00  1.0731624226562946e+00 0.0000000000000000e+00 0.0000000000000000e+00  1.0722217938031575e+00 0.0000000000000000e+00 0.0000000000000000e+00  1.0711719413459952e+00 0.0000000000000000e+00 0.0000000000000000e+00  1.0695245931181523e+00 0.0000000000000000e+00 0.0000000000000000e+00  1.0695671103144000e+00 0.0000000000000000e+00 0.0000000000000000e+00  1.0704796319331105e+00 0.0000000000000000e+00 0.0000000000000000e+00  1.0739275924710430e+00 -4.7777415597616843e-03 0.0000000000000000e+00  1.0714550413049000e+00 -1.0017016051297590e-02 0.0000000000000000e+00  1.0660705612796231e+00 -1.5936139939578656e-02 0.0000000000000000e+00  1.0538907569071805e+00 -2.2663196608182314e-02 0.0000000000000000e+00  1.0338184809742739e+00 -3.1945651957740392e-02 0.0000000000000000e+00  1.0021241802152263e+00 -4.2846319653917705e-02 0.0000000000000000e+00  9.6103314185834587e-01 -6.6550929954629884e-02 0.0000000000000000e+00  9.1305637829961206e-01 -9.9017547077947840e-02 0.0000000000000000e+00  8.5134426514465211e-01 -1.3348218684581323e-01 0.0000000000000000e+00  7.8254521219893214e-01 -1.6186903026932994e-01 0.0000000000000000e+00  7.2798287344527157e-01 -1.7873528847534290e-01 0.0000000000000000e+00  7.1380158142213446e-01 -1.8353146949346952e-01 0.0000000000000000e+00  7.6031170465810016e-01 -1.7518258819999877e-01 0.0000000000000000e+00  8.6816065173844936e-01 -1.5597517743069747e-01 0.0000000000000000e+00  1.0051382140578307e+00 -1.1884263714452238e-01 0.0000000000000000e+00  1.1183815465273712e+00 -7.6034545223075026e-02 0.0000000000000000e+00  1.1727554856955340e+00 -4.1547531828776817e-02 0.0000000000000000e+00  1.1755182516916667e+00 -1.5866489166352752e-02 0.0000000000000000e+00  1.1499419350522773e+00 -5.2011259027825709e-03 0.0000000000000000e+00  1.1229533814531547e+00 9.0431149057933094e-04 0.0000000000000000e+00  1.1056205433601700e+00 2.6784220977887217e-03 0.0000000000000000e+00  1.0971633449489824e+00 2.5225288888371510e-03 0.0000000000000000e+00  1.0922343727059711e+00 1.3032231775877007e-03 0.0000000000000000e+00  1.0875905989728583e+00 0.0000000000000000e+00 0.0000000000000000e+00  1.0830879995188551e+00 0.0000000000000000e+00 0.0000000000000000e+00  1.0770216834001902e+00 0.0000000000000000e+00 0.0000000000000000e+00  1.0707871721755899e+00 0.0000000000000000e+00 0.0000000000000000e+00  1.0645148797811137e+00 0.0000000000000000e+00 0.0000000000000000e+00  1.0603236848548936e+00 0.0000000000000000e+00 0.0000000000000000e+00  1.0583213048722555e+00 0.0000000000000000e+00 0.0000000000000000e+00  1.0588125148565466e+00 0.0000000000000000e+00 0.0000000000000000e+00  1.0603945878737775e+00 0.0000000000000000e+00 0.0000000000000000e+00  1.0632672394702976e+00 0.0000000000000000e+00 0.0000000000000000e+00  1.0659805373999192e+00 0.0000000000000000e+00 0.0000000000000000e+00  1.0676663001570175e+00 0.0000000000000000e+00 0.0000000000000000e+00  1.0677634877657205e+00 0.0000000000000000e+00 0.0000000000000000e+00  1.0667490553817802e+00 0.0000000000000000e+00 0.0000000000000000e+00  1.0632349257227309e+00 0.0000000000000000e+00 0.0000000000000000e+00  1.0598534572579434e+00 0.0000000000000000e+00 0.0000000000000000e+00  1.0550511456125362e+00 0.0000000000000000e+00 0.0000000000000000e+00  1.0517331230917994e+00 0.0000000000000000e+00 0.0000000000000000e+00  1.0499291292078572e+00 0.0000000000000000e+00 0.0000000000000000e+00  1.0507335929929327e+00 0.0000000000000000e+00 0.0000000000000000e+00  1.0530887133653106e+00 0.0000000000000000e+00 0.0000000000000000e+00  1.0564752932413231e+00 0.0000000000000000e+00 0.0000000000000000e+00  1.0605132270269182e+00 0.0000000000000000e+00 0.0000000000000000e+00  1.0643553390281768e+00 0.0000000000000000e+00 0.0000000000000000e+00  1.0638176099988561e+00 0.0000000000000000e+00 0.0000000000000000e+00  1.0604037955801124e+00 0.0000000000000000e+00 0.0000000000000000e+00  1.0571621435865992e+00 0.0000000000000000e+00 0.0000000000000000e+00  1.0543024244350412e+00 0.0000000000000000e+00 0.0000000000000000e+00  1.0508725376789851e+00 0.0000000000000000e+00 0.0000000000000000e+00  1.0468553539268044e+00 0.0000000000000000e+00 0.0000000000000000e+00  1.0470040754445382e+00 0.0000000000000000e+00 0.0000000000000000e+00  1.0490223878465015e+00 0.0000000000000000e+00 0.0000000000000000e+00  1.0518043974737494e+00 0.0000000000000000e+00 0.0000000000000000e+00  1.0560430397969640e+00 0.0000000000000000e+00 0.0000000000000000e+00  1.0601396860745211e+00 0.0000000000000000e+00 0.0000000000000000e+00  1.0623676720021942e+00 0.0000000000000000e+00 0.0000000000000000e+00  1.0633525381403177e+00 0.0000000000000000e+00 0.0000000000000000e+00  1.0618030903284104e+00 0.0000000000000000e+00 0.0000000000000000e+00  1.0573314427316827e+00 0.0000000000000000e+00 0.0000000000000000e+00  1.0527454425429905e+00 0.0000000000000000e+00 0.0000000000000000e+00  1.0477966829420580e+00 0.0000000000000000e+00 0.0000000000000000e+00  1.0427123959961102e+00 0.0000000000000000e+00 0.0000000000000000e+00  1.0404181380997815e+00 0.0000000000000000e+00 0.0000000000000000e+00  1.0402119352908694e+00 0.0000000000000000e+00 0.0000000000000000e+00  1.0412685099944667e+00 0.0000000000000000e+00 0.0000000000000000e+00  1.0457360818273722e+00 0.0000000000000000e+00 0.0000000000000000e+00  1.0512057078694907e+00 0.0000000000000000e+00 0.0000000000000000e+00  1.0560103475167206e+00 0.0000000000000000e+00 0.0000000000000000e+00  1.0601566396812936e+00 0.0000000000000000e+00 0.0000000000000000e+00  1.0625145716047588e+00 0.0000000000000000e+00 0.0000000000000000e+00  1.0621098916611726e+00 0.0000000000000000e+00 0.0000000000000000e+00  1.0599544702151418e+00 0.0000000000000000e+00 0.0000000000000000e+00  1.0562380012286916e+00 0.0000000000000000e+00 0.0000000000000000e+00  1.0518283231949241e+00 0.0000000000000000e+00 0.0000000000000000e+00  1.0487962032836973e+00 0.0000000000000000e+00 0.0000000000000000e+00  1.0462788748340468e+00 0.0000000000000000e+00 0.0000000000000000e+00  1.0464038299363818e+00 0.0000000000000000e+00 0.0000000000000000e+00  1.0497420908362467e+00 0.0000000000000000e+00 0.0000000000000000e+00  1.0551771406762278e+00 0.0000000000000000e+00 0.0000000000000000e+00  1.0616870097451911e+00 0.0000000000000000e+00 0.0000000000000000e+00  1.0686535396150045e+00 0.0000000000000000e+00 0.0000000000000000e+00  1.0759969054678444e+00 0.0000000000000000e+00 0.0000000000000000e+00  1.0834083358275204e+00 0.0000000000000000e+00 0.0000000000000000e+00  1.0888431911410210e+00 0.0000000000000000e+00 0.0000000000000000e+00  1.0924826062407620e+00 0.0000000000000000e+00 0.0000000000000000e+00  1.0958849430466919e+00 0.0000000000000000e+00 0.0000000000000000e+00  1.0959572135490088e+00 0.0000000000000000e+00 0.0000000000000000e+00  1.0953717555665186e+00 0.0000000000000000e+00 0.0000000000000000e+00  1.0929449615431446e+00 0.0000000000000000e+00 0.0000000000000000e+00  1.0885321504391396e+00 0.0000000000000000e+00 0.0000000000000000e+00  1.0830424353771837e+00 0.0000000000000000e+00 0.0000000000000000e+00  1.0768266689576727e+00 0.0000000000000000e+00 0.0000000000000000e+00  1.0698427552985701e+00 0.0000000000000000e+00 0.0000000000000000e+00  1.0616494770903588e+00 0.0000000000000000e+00 0.0000000000000000e+00  1.0542462953867866e+00 0.0000000000000000e+00 0.0000000000000000e+00  1.0462646900054375e+00 0.0000000000000000e+00 0.0000000000000000e+00  1.0313036694295403e+00 0.0000000000000000e+00 0.0000000000000000e+00  1.0248869868881492e+00 0.0000000000000000e+00 0.0000000000000000e+00  1.0198043414080569e+00 0.0000000000000000e+00 0.0000000000000000e+00  1.0152325154817274e+00 0.0000000000000000e+00 0.0000000000000000e+00  1.0115083220309493e+00 0.0000000000000000e+00 0.0000000000000000e+00  1.0085854058165669e+00 0.0000000000000000e+00 0.0000000000000000e+00  1.0064050008930072e+00 0.0000000000000000e+00 0.0000000000000000e+00  1.0043219627714002e+00 0.0000000000000000e+00 0.0000000000000000e+00  1.0029438863556235e+00 0.0000000000000000e+00 0.0000000000000000e+00  1.0020617030849934e+00 0.0000000000000000e+00 0.0000000000000000e+00  1.0010340570729603e+00 0.0000000000000000e+00 0.0000000000000000e+00  1.0010196131411213e+00 0.0000000000000000e+00 0.0000000000000000e+00  1.0000937282323494e+00 0.0000000000000000e+00 0.0000000000000000e+00  1.0001761426787128e+00 0.0000000000000000e+00 0.0000000000000000e+00  9.9982313043633075e-01 0.0000000000000000e+00 0.0000000000000000e+00  1.0005302896482680e+00 0.0000000000000000e+00 0.0000000000000000e+00  1.0002758749204506e+00 0.0000000000000000e+00 0.0000000000000000e+00  9.9980324719055014e-01 0.0000000000000000e+00 0.0000000000000000e+00  1.0000001298287284e+00 0.0000000000000000e+00 0.0000000000000000e+00  1.0000001298287284e+00 0.0000000000000000e+00 0.0000000000000000e+00  1.0000001298287284e+00 0.0000000000000000e+00 0.0000000000000000e+00  1.0000001298287284e+00 0.0000000000000000e+00 0.0000000000000000e+00  1.0000001298287284e+00 0.0000000000000000e+00 0.0000000000000000e+00  1.0000001298287284e+00 0.0000000000000000e+00 0.0000000000000000e+00  1.0000001298287284e+00 0.0000000000000000e+00 0.0000000000000000e+00  1.0000001298287284e+00 0.0000000000000000e+00 0.0000000000000000e+00  1.0000001298287284e+00 0.0000000000000000e+00 0.0000000000000000e+00  1.0000001298287284e+00 0.0000000000000000e+00 0.0000000000000000e+00  1.0000001298287284e+00 0.0000000000000000e+00 0.0000000000000000e+00  1.0000001298287284e+00 0.0000000000000000e+00 0.0000000000000000e+00  1.0000001298287284e+00 0.0000000000000000e+00 0.0000000000000000e+00  1.0000001298287284e+00 0.0000000000000000e+00 0.0000000000000000e+00  1.0000001298287284e+00 0.0000000000000000e+00 0.0000000000000000e+00  1.0000001298287284e+00 0.0000000000000000e+00 0.0000000000000000e+00  1.0000001298287284e+00 0.0000000000000000e+00 0.0000000000000000e+00  1.0000001298287284e+00 0.0000000000000000e+00 0.0000000000000000e+00  1.0000001298287284e+00 0.0000000000000000e+00 0.0000000000000000e+00  1.0000001298287284e+00 0.0000000000000000e+00 0.0000000000000000e+00  1.0416232415050963e+00 -9.4880290050528421e-03 0.0000000000000000e+00  1.0387348277776411e+00 -1.9195739482717310e-02 0.0000000000000000e+00  1.0366543888673063e+00 -2.9727635799898133e-02 0.0000000000000000e+00  1.0310630344301634e+00 -4.0906810078600205e-02 0.0000000000000000e+00  1.0253818910198580e+00 -5.6263260576503264e-02 0.0000000000000000e+00  1.0299549096560849e+00 -5.9685374997510393e-02 0.0000000000000000e+00  1.0341764461752498e+00 -6.3156086335555819e-02 0.0000000000000000e+00  1.0394237960714490e+00 -6.6305728142809120e-02 0.0000000000000000e+00  1.0449604037191262e+00 -6.9269578747814461e-02 0.0000000000000000e+00  1.0511372860776920e+00 -7.1786728918924098e-02 0.0000000000000000e+00  1.0579033119199484e+00 -7.3896117721083426e-02 0.0000000000000000e+00  1.0651337445681095e+00 -7.5293287997456812e-02 0.0000000000000000e+00  1.0728721741395670e+00 -7.6083187385433904e-02 0.0000000000000000e+00  1.0807481091328610e+00 -7.5920204833008140e-02 0.0000000000000000e+00  1.0889388180732917e+00 -7.5021208969592856e-02 0.0000000000000000e+00  1.0971622295937220e+00 -7.3249967145045614e-02 0.0000000000000000e+00  1.1054318549832782e+00 -7.0315211046168211e-02 0.0000000000000000e+00  1.1132927207142607e+00 -6.6336866516580745e-02 0.0000000000000000e+00  1.1208063288830938e+00 -6.1518874577333259e-02 0.0000000000000000e+00  1.1278004677591360e+00 -5.5759574723002504e-02 0.0000000000000000e+00  1.1340168823901606e+00 -4.9086438660581891e-02 0.0000000000000000e+00  1.1394568392989621e+00 -4.1674121295800427e-02 0.0000000000000000e+00  1.1439341688132669e+00 -3.3637387924359857e-02 0.0000000000000000e+00  1.1474341618249160e+00 -2.4887628282229173e-02 0.0000000000000000e+00  1.1498442593735489e+00 -1.5932309886921733e-02 0.0000000000000000e+00  1.1511218403003372e+00 -6.5191711210882035e-03 0.0000000000000000e+00  1.1510267454762870e+00 3.1194494563842171e-03 0.0000000000000000e+00  1.1498521542275357e+00 1.2663275744732467e-02 0.0000000000000000e+00  1.1472278166478185e+00 2.1985173652635408e-02 0.0000000000000000e+00  1.1433685077405129e+00 3.0982495445228776e-02 0.0000000000000000e+00  1.1382040323983702e+00 3.9430409764109921e-02 0.0000000000000000e+00  1.1317984861232424e+00 4.6993502591463503e-02 0.0000000000000000e+00  1.1243055662242964e+00 5.3720153667493005e-02 0.0000000000000000e+00  1.1157821147348161e+00 5.9402248773689145e-02 0.0000000000000000e+00  1.1065131926742047e+00 6.3706434381427701e-02 0.0000000000000000e+00  1.0966057151463195e+00 6.6617222