<?xml version="1.0"?>
<VTKFile type="UnstructuredGrid"  version="0.1"  >
<UnstructuredGrid>
<Piece  NumberOfPoints="10199" NumberOfCells="20110">
<Points>
<DataArray  type="Float64"  NumberOfComponents="3"  format="ascii">0 -5 0  8 -5 0  30 -5 0  40 -5 0  40 5 0  30 5 0  8 5 0  0 5 0  8 -2.5 0  15 -2.5 0  30 -2.5 0  30 2.5 0  15 2.5 0  8 2.5 0  10 0.5 0  10 -0.5 0  0 0 0  0.4210526315780956 -5 0  0.8421052631563433 -5 0  1.263157894734281 -5 0  1.684210526311999 -5 0  2.105263157889717 -5 0  2.526315789467435 -5 0  2.947368421045153 -5 0  3.368421052622872 -5 0  3.78947368420059 -5 0  4.210526315779479 -5 0  4.631578947359537 -5 0  5.052631578939595 -5 0  5.473684210519653 -5 0  5.89473684209971 -5 0  6.315789473679768 -5 0  6.736842105259826 -5 0  7.157894736839884 -5 0  7.578947368419942 -5 0  8.407407407405314 -5 0  8.814814814810628 -5 0  9.222222222215942 -5 0  9.629629629621256 -5 0  10.03703703702657 -5 0  10.44444444443188 -5 0  10.8518518518372 -5 0  11.25925925924251 -5 0  11.66666666664783 -5 0  12.07407407405314 -5 0  12.48148148145846 -5 0  12.88888888886377 -5 0  13.29629629626908 -5 0  13.7037037036744 -5 0  14.11111111107971 -5 0  14.51851851848502 -5 0  14.92592592589034 -5 0  15.33333333329565 -5 0  15.74074074070096 -5 0  16.14814814810754 -5 0  16.55555555551614 -5 0  16.96296296292474 -5 0  17.37037037033335 -5 0  17.77777777774195 -5 0  18.18518518515056 -5 0  18.59259259255916 -5 0  18.99999999996776 -5 0  19.40740740737636 -5 0  19.81481481478497 -5 0  20.22222222219357 -5 0  20.62962962960217 -5 0  21.03703703701077 -5 0  21.44444444441937 -5 0  21.85185185182797 -5 0  22.25925925923657 -5 0  22.66666666664518 -5 0  23.07407407405378 -5 0  23.48148148146238 -5 0  23.88888888887098 -5 0  24.29629629627958 -5 0  24.70370370368818 -5 0  25.11111111109678 -5 0  25.51851851850539 -5 0  25.92592592591399 -5 0  26.33333333332259 -5 0  26.74074074073119 -5 0  27.14814814813979 -5 0  27.55555555554839 -5 0  27.96296296295699 -5 0  28.3703703703656 -5 0  28.7777777777742 -5 0  29.1851851851828 -5 0  29.5925925925914 -5 0  30.41666666667852 -5 0  30.83333333335704 -5 0  31.25000000003556 -5 0  31.66666666671408 -5 0  32.08333333338936 -5 0  32.50000000005308 -5 0  32.9166666667168 -5 0  33.33333333338052 -5 0  33.75000000004424 -5 0  34.16666666670795 -5 0  34.58333333337167 -5 0  35.00000000003539 -5 0  35.41666666669911 -5 0  35.83333333336282 -5 0  36.25000000002654 -5 0  36.66666666669026 -5 0  37.08333333335398 -5 0  37.50000000001769 -5 0  37.91666666668141 -5 0  38.33333333334513 -5 0  38.75000000000885 -5 0  39.16666666667257 -5 0  39.58333333333628 -5 0  40 -4.583333333332821 0  40 -4.166666666665642 0  40 -3.74999999999855 0  40 -3.333333333333135 0  40 -2.916666666667806 0  40 -2.500000000002478 0  40 -2.083333333337148 0  40 -1.666666666671818 0  40 -1.250000000006488 0  40 -0.8333333333405228 0  40 -0.4166666666733416 0  40 -6.163070054299169e-12 0  40 0.4166666666610173 0  40 0.8333333333281976 0  40 1.249999999995378 0  40 1.666666666662558 0  40 2.083333333329739 0  40 2.499999999996919 0  40 2.916666666664099 0  40 3.33333333333128 0  40 3.74999999999846 0  40 4.166666666665641 0  40 4.583333333332821 0  39.58333333333628 5 0  39.16666666667256 5 0  38.75000000000885 5 0  38.33333333334513 5 0  37.91666666668141 5 0  37.50000000001769 5 0  37.08333333335398 5 0  36.66666666669025 5 0  36.25000000002654 5 0  35.83333333336282 5 0  35.41666666669911 5 0  35.00000000003539 5 0  34.58333333337167 5 0  34.16666666670795 5 0  33.75000000004424 5 0  33.33333333338052 5 0  32.9166666667168 5 0  32.50000000005308 5 0  32.08333333338936 5 0  31.66666666671408 5 0  31.25000000003556 5 0  30.83333333335704 5 0  30.41666666667852 5 0  29.59259259259259 5 0  29.18518518518519 5 0  28.77777777777778 5 0  28.37037037037037 5 0  27.96296296296296 5 0  27.55555555555556 5 0  27.14814814814815 5 0  26.74074074074074 5 0  26.33333333333333 5 0  25.92592592592593 5 0  25.51851851851852 5 0  25.11111111111111 5 0  24.7037037037037 5 0  24.2962962962963 5 0  23.88888888888889 5 0  23.48148148148148 5 0  23.07407407407408 5 0  22.66666666666667 5 0  22.25925925925926 5 0  21.85185185185185 5 0  21.44444444444445 5 0  21.03703703703704 5 0  20.62962962962963 5 0  20.22222222222222 5 0  19.81481481481482 5 0  19.40740740740741 5 0  19 5 0  18.5925925925926 5 0  18.18518518518519 5 0  17.77777777777778 5 0  17.37037037037037 5 0  16.96296296296296 5 0  16.55555555555556 5 0  16.14814814814815 5 0  15.74074074074074 5 0  15.33333333333333 5 0  14.92592592592593 5 0  14.51851851851852 5 0  14.11111111111111 5 0  13.70370370370371 5 0  13.2962962962963 5 0  12.88888888888889 5 0  12.48148148148148 5 0  12.07407407407408 5 0  11.66666666666667 5 0  11.25925925925926 5 0  10.85185185185185 5 0  10.44444444444445 5 0  10.03703703703704 5 0  9.629629629629633 5 0  9.222222222222221 5 0  8.814814814814817 5 0  8.407407407407408 5 0  7.5789473684193 5 0  7.157894736838599 5 0  6.73684210526082 5 0  6.315789473684795 5 0  5.894736842108769 5 0  5.473684210532742 5 0  5.052631578956715 5 0  4.631578947380689 5 0  4.210526315804662 5 0  3.789473684226299 5 0  3.368421052645599 5 0  2.947368421064898 5 0  2.526315789484198 5 0  2.105263157903499 5 0  1.6842105263228 5 0  1.2631578947421 5 0  0.8421052631613994 5 0  0.4210526315806993 5 0  0 4.545454545454545 0  0 4.09090909090909 0  0 3.636363636363634 0  0 3.18181818181818 0  0 2.727272727272726 0  0 2.272727272727271 0  0 1.818181818181817 0  0 1.363636363636363 0  0 0.9090909090909092 0  0 0.454545454545455 0  0 -0.4545454545450807 0  0 -0.9090909090895867 0  0 -1.363636363633713 0  0 -1.818181818177841 0  0 -2.272727272723127 0  0 -2.727272727269273 0  0 -3.181818181815419 0  0 -3.636363636361564 0  0 -4.090909090907709 0  0 -4.545454545453855 0  8 -4.499999999999999 0  8 -3.999999999999999 0  8 -3.499999999999999 0  8 -3 0  8.137254901963859 -2.5 0  8.274509803926303 -2.5 0  8.411764705886863 -2.5 0  8.549019607849138 -2.5 0  8.686274509809513 -2.5 0  8.82352941176989 -2.5 0  8.960784313730265 -2.5 0  9.098039215690642 -2.5 0  9.235294117651017 -2.5 0  9.372549019611395 -2.5 0  9.50980392157177 -2.5 0  9.647058823532147 -2.5 0  9.784313725492522 -2.5 0  9.921568627452897 -2.5 0  10.05882352941327 -2.5 0  10.19607843137365 -2.5 0  10.33333333333402 -2.5 0  10.4705882352944 -2.5 0  10.60784313725478 -2.5 0  10.74509803921515 -2.5 0  10.88235294117553 -2.5 0  11.0196078431359 -2.5 0  11.15686274509628 -2.5 0  11.29411764705665 -2.5 0  11.43137254901703 -2.5 0  11.56862745097915 -2.5 0  11.70588235294301 -2.5 0  11.84313725490686 -2.5 0  11.98039215687072 -2.5 0  12.11764705883209 -2.5 0  12.25490196079247 -2.5 0  12.39215686275285 -2.5 0  12.52941176471322 -2.5 0  12.6666666666736 -2.5 0  12.80392156863397 -2.5 0  12.94117647059435 -2.5 0  13.07843137255473 -2.5 0  13.2156862745151 -2.5 0  13.35294117647548 -2.5 0  13.49019607843586 -2.5 0  13.62745098039623 -2.5 0  13.76470588235661 -2.5 0  13.90196078431699 -2.5 0  14.03921568627736 -2.5 0  14.17647058823774 -2.5 0  14.31372549019812 -2.5 0  14.45098039215849 -2.5 0  14.58823529411887 -2.5 0  14.72549019607925 -2.5 0  14.86274509803962 -2.5 0  15.20270270270254 -2.5 0  15.40540540540509 -2.5 0  15.60810810810763 -2.5 0  15.81081081081017 -2.5 0  16.01351351351227 -2.5 0  16.21621621621265 -2.5 0  16.41891891891279 -2.5 0  16.62162162161294 -2.5 0  16.82432432431308 -2.5 0  17.02702702701322 -2.5 0  17.22972972971337 -2.5 0  17.43243243241351 -2.5 0  17.63513513511365 -2.5 0  17.83783783781379 -2.5 0  18.04054054051394 -2.5 0  18.24324324321408 -2.5 0  18.44594594591422 -2.5 0  18.64864864861436 -2.5 0  18.85135135131451 -2.5 0  19.05405405401465 -2.5 0  19.25675675671479 -2.5 0  19.45945945941494 -2.5 0  19.66216216211508 -2.5 0  19.86486486481522 -2.5 0  20.06756756751536 -2.5 0  20.27027027021551 -2.5 0  20.47297297291565 -2.5 0  20.6756756756158 -2.5 0  20.87837837831594 -2.5 0  21.08108108101608 -2.5 0  21.28378378371622 -2.5 0  21.48648648641637 -2.5 0  21.68918918911651 -2.5 0  21.89189189181666 -2.5 0  22.0945945945168 -2.5 0  22.29729729721694 -2.5 0  22.49999999991778 -2.5 0  22.70270270262203 -2.5 0  22.90540540532697 -2.5 0  23.10810810803191 -2.5 0  23.31081081073686 -2.5 0  23.5135135134418 -2.5 0  23.71621621614674 -2.5 0  23.91891891885169 -2.5 0  24.12162162155663 -2.5 0  24.32432432426158 -2.5 0  24.52702702696652 -2.5 0  24.72972972967146 -2.5 0  24.93243243237641 -2.5 0  25.13513513508135 -2.5 0  25.3378378377863 -2.5 0  25.54054054049124 -2.5 0  25.74324324319618 -2.5 0  25.94594594590112 -2.5 0  26.14864864860607 -2.5 0  26.35135135131101 -2.5 0  26.55405405401596 -2.5 0  26.7567567567209 -2.5 0  26.95945945942584 -2.5 0  27.16216216213079 -2.5 0  27.36486486483573 -2.5 0  27.56756756754068 -2.5 0  27.77027027024562 -2.5 0  27.97297297295056 -2.5 0  28.1756756756555 -2.5 0  28.37837837836045 -2.5 0  28.5810810810654 -2.5 0  28.78378378377034 -2.5 0  28.98648648647528 -2.5 0  29.18918918918023 -2.5 0  29.39189189188517 -2.5 0  29.59459459459011 -2.5 0  29.79729729729506 -2.5 0  30 -3.000000000000001 0  30 -3.500000000000001 0  30 -4.000000000000001 0  30 -4.5 0  8 4.499999999999999 0  8 3.999999999999999 0  8 3.499999999999999 0  8 3 0  8.137254901963859 2.5 0  8.274509803926303 2.5 0  8.411764705886863 2.5 0  8.549019607849138 2.5 0  8.686274509809513 2.5 0  8.82352941176989 2.5 0  8.960784313730265 2.5 0  9.098039215690642 2.5 0  9.235294117651017 2.5 0  9.372549019611395 2.5 0  9.50980392157177 2.5 0  9.647058823532147 2.5 0  9.784313725492522 2.5 0  9.921568627452897 2.5 0  10.05882352941327 2.5 0  10.19607843137365 2.5 0  10.33333333333402 2.5 0  10.4705882352944 2.5 0  10.60784313725478 2.5 0  10.74509803921515 2.5 0  10.88235294117553 2.5 0  11.0196078431359 2.5 0  11.15686274509628 2.5 0  11.29411764705665 2.5 0  11.43137254901703 2.5 0  11.56862745097915 2.5 0  11.70588235294301 2.5 0  11.84313725490686 2.5 0  11.98039215687072 2.5 0  12.11764705883209 2.5 0  12.25490196079247 2.5 0  1
[...]
<PointData  Vectors="f_17"> 
<DataArray  type="Float64"  Name="f_17"  NumberOfComponents="3" format="ascii">1.0000001299862353e+00 0.0000000000000000e+00 0.0000000000000000e+00  1.0407156898102721e+00 0.0000000000000000e+00 0.0000000000000000e+00  1.0498102299846468e+00 0.0000000000000000e+00 0.0000000000000000e+00  1.0732151416393712e+00 0.0000000000000000e+00 0.0000000000000000e+00  1.0940320285858338e+00 0.0000000000000000e+00 0.0000000000000000e+00  1.0646797160447419e+00 0.0000000000000000e+00 0.0000000000000000e+00  1.0401787741638671e+00 0.0000000000000000e+00 0.0000000000000000e+00  1.0000001299862353e+00 0.0000000000000000e+00 0.0000000000000000e+00  1.0191707977788071e+00 -5.1612138403270905e-02 0.0000000000000000e+00  1.0071375417954316e+00 -3.7398855018680462e-02 0.0000000000000000e+00  9.8677022483672561e-01 1.0888290996098416e-02 0.0000000000000000e+00  1.1549454529382075e+00 7.6741160115680624e-03 0.0000000000000000e+00  1.0953135578141853e+00 -8.3126740291393747e-02 0.0000000000000000e+00  1.0236374994828430e+00 5.0029487869968414e-02 0.0000000000000000e+00  0.0000000000000000e+00 0.0000000000000000e+00 0.0000000000000000e+00  0.0000000000000000e+00 0.0000000000000000e+00 0.0000000000000000e+00  1.0000001299862353e+00 0.0000000000000000e+00 0.0000000000000000e+00  9.9927431673275657e-01 0.0000000000000000e+00 0.0000000000000000e+00  9.9864764758056956e-01 0.0000000000000000e+00 0.0000000000000000e+00  1.0006384205496046e+00 0.0000000000000000e+00 0.0000000000000000e+00  1.0003412534506371e+00 0.0000000000000000e+00 0.0000000000000000e+00  1.0011995905340860e+00 0.0000000000000000e+00 0.0000000000000000e+00  1.0014014652779968e+00 0.0000000000000000e+00 0.0000000000000000e+00  1.0016152249360257e+00 0.0000000000000000e+00 0.0000000000000000e+00  1.0023939038344134e+00 0.0000000000000000e+00 0.0000000000000000e+00  1.0035690230150671e+00 0.0000000000000000e+00 0.0000000000000000e+00  1.0046913676509917e+00 0.0000000000000000e+00 0.0000000000000000e+00  1.0061252659598001e+00 0.0000000000000000e+00 0.0000000000000000e+00  1.0083528893740736e+00 0.0000000000000000e+00 0.0000000000000000e+00  1.0106472923635315e+00 0.0000000000000000e+00 0.0000000000000000e+00  1.0144808547232729e+00 0.0000000000000000e+00 0.0000000000000000e+00  1.0161104217645318e+00 0.0000000000000000e+00 0.0000000000000000e+00  1.0205546711273226e+00 0.0000000000000000e+00 0.0000000000000000e+00  1.0272306216069889e+00 0.0000000000000000e+00 0.0000000000000000e+00  1.0326469201872459e+00 0.0000000000000000e+00 0.0000000000000000e+00  1.0489509762106586e+00 0.0000000000000000e+00 0.0000000000000000e+00  1.0577438399568624e+00 0.0000000000000000e+00 0.0000000000000000e+00  1.0660780927564681e+00 0.0000000000000000e+00 0.0000000000000000e+00  1.0749148649329963e+00 0.0000000000000000e+00 0.0000000000000000e+00  1.0820789188811404e+00 0.0000000000000000e+00 0.0000000000000000e+00  1.0881973300932823e+00 0.0000000000000000e+00 0.0000000000000000e+00  1.0932693066303536e+00 0.0000000000000000e+00 0.0000000000000000e+00  1.0949215947346040e+00 0.0000000000000000e+00 0.0000000000000000e+00  1.0948146056555255e+00 0.0000000000000000e+00 0.0000000000000000e+00  1.0921926415140222e+00 0.0000000000000000e+00 0.0000000000000000e+00  1.0880642347375300e+00 0.0000000000000000e+00 0.0000000000000000e+00  1.0816857267785989e+00 0.0000000000000000e+00 0.0000000000000000e+00  1.0760172831919008e+00 0.0000000000000000e+00 0.0000000000000000e+00  1.0706215690304834e+00 0.0000000000000000e+00 0.0000000000000000e+00  1.0663759730648876e+00 0.0000000000000000e+00 0.0000000000000000e+00  1.0642408603107942e+00 0.0000000000000000e+00 0.0000000000000000e+00  1.0638014914810168e+00 0.0000000000000000e+00 0.0000000000000000e+00  1.0649094293814148e+00 0.0000000000000000e+00 0.0000000000000000e+00  1.0663847308989749e+00 0.0000000000000000e+00 0.0000000000000000e+00  1.0672221895982852e+00 0.0000000000000000e+00 0.0000000000000000e+00  1.0679911074903929e+00 0.0000000000000000e+00 0.0000000000000000e+00  1.0671870645790036e+00 0.0000000000000000e+00 0.0000000000000000e+00  1.0631367389732647e+00 0.0000000000000000e+00 0.0000000000000000e+00  1.0582343330161024e+00 0.0000000000000000e+00 0.0000000000000000e+00  1.0522398837108675e+00 0.0000000000000000e+00 0.0000000000000000e+00  1.0463073289663247e+00 0.0000000000000000e+00 0.0000000000000000e+00  1.0419177565724613e+00 0.0000000000000000e+00 0.0000000000000000e+00  1.0390863250918827e+00 0.0000000000000000e+00 0.0000000000000000e+00  1.0387503267731433e+00 0.0000000000000000e+00 0.0000000000000000e+00  1.0412938846586741e+00 0.0000000000000000e+00 0.0000000000000000e+00  1.0450865970469987e+00 0.0000000000000000e+00 0.0000000000000000e+00  1.0498785189946134e+00 0.0000000000000000e+00 0.0000000000000000e+00  1.0562806237152671e+00 0.0000000000000000e+00 0.0000000000000000e+00  1.0604503938562813e+00 0.0000000000000000e+00 0.0000000000000000e+00  1.0624038794551738e+00 0.0000000000000000e+00 0.0000000000000000e+00  1.0628265930873118e+00 0.0000000000000000e+00 0.0000000000000000e+00  1.0601877989564115e+00 0.0000000000000000e+00 0.0000000000000000e+00  1.0557967149770362e+00 0.0000000000000000e+00 0.0000000000000000e+00  1.0523272143090281e+00 0.0000000000000000e+00 0.0000000000000000e+00  1.0484517864468454e+00 0.0000000000000000e+00 0.0000000000000000e+00  1.0459192471035763e+00 0.0000000000000000e+00 0.0000000000000000e+00  1.0461407682330444e+00 0.0000000000000000e+00 0.0000000000000000e+00  1.0477044269531131e+00 0.0000000000000000e+00 0.0000000000000000e+00  1.0509472633654173e+00 0.0000000000000000e+00 0.0000000000000000e+00  1.0558783447547451e+00 0.0000000000000000e+00 0.0000000000000000e+00  1.0598982800364931e+00 0.0000000000000000e+00 0.0000000000000000e+00  1.0625652708202094e+00 0.0000000000000000e+00 0.0000000000000000e+00  1.0660160445867286e+00 0.0000000000000000e+00 0.0000000000000000e+00  1.0653554152175460e+00 0.0000000000000000e+00 0.0000000000000000e+00  1.0611451115501311e+00 0.0000000000000000e+00 0.0000000000000000e+00  1.0568354666347299e+00 0.0000000000000000e+00 0.0000000000000000e+00  1.0539749363397253e+00 0.0000000000000000e+00 0.0000000000000000e+00  1.0508404990924489e+00 0.0000000000000000e+00 0.0000000000000000e+00  1.0502985781102820e+00 0.0000000000000000e+00 0.0000000000000000e+00  1.0518864281654687e+00 0.0000000000000000e+00 0.0000000000000000e+00  1.0548942812745785e+00 0.0000000000000000e+00 0.0000000000000000e+00  1.0592244818358438e+00 0.0000000000000000e+00 0.0000000000000000e+00  1.0632204934293317e+00 0.0000000000000000e+00 0.0000000000000000e+00  1.0654355708172161e+00 0.0000000000000000e+00 0.0000000000000000e+00  1.0658585230601803e+00 0.0000000000000000e+00 0.0000000000000000e+00  1.0647101991209154e+00 0.0000000000000000e+00 0.0000000000000000e+00  1.0621305302748814e+00 0.0000000000000000e+00 0.0000000000000000e+00  1.0584818680073020e+00 0.0000000000000000e+00 0.0000000000000000e+00  1.0556215455865503e+00 0.0000000000000000e+00 0.0000000000000000e+00  1.0539827916586582e+00 0.0000000000000000e+00 0.0000000000000000e+00  1.0538914628890350e+00 0.0000000000000000e+00 0.0000000000000000e+00  1.0563645655303520e+00 0.0000000000000000e+00 0.0000000000000000e+00  1.0604152098882544e+00 0.0000000000000000e+00 0.0000000000000000e+00  1.0659129726126702e+00 0.0000000000000000e+00 0.0000000000000000e+00  1.0703642127985864e+00 0.0000000000000000e+00 0.0000000000000000e+00  1.0743535328538796e+00 0.0000000000000000e+00 0.0000000000000000e+00  1.0763424668479196e+00 0.0000000000000000e+00 0.0000000000000000e+00  1.0773059543776637e+00 0.0000000000000000e+00 0.0000000000000000e+00  1.0761873202602004e+00 0.0000000000000000e+00 0.0000000000000000e+00  1.0750210853663951e+00 0.0000000000000000e+00 0.0000000000000000e+00  1.0731726020920027e+00 0.0000000000000000e+00 0.0000000000000000e+00  1.0729999825620276e+00 -3.0758654064421998e-04 0.0000000000000000e+00  1.0713524896196254e+00 -1.5514063671509250e-04 0.0000000000000000e+00  1.0674553817281791e+00 1.2296601310527175e-03 0.0000000000000000e+00  1.0578099480188177e+00 4.8674854825142737e-03 0.0000000000000000e+00  1.0418841065650555e+00 1.1226553956998075e-02 0.0000000000000000e+00  1.0147380899594223e+00 2.3033517524551534e-02 0.0000000000000000e+00  9.7404749586012174e-01 3.7293939052409526e-02 0.0000000000000000e+00  9.1927936371626418e-01 5.4910592309081616e-02 0.0000000000000000e+00  8.5435640089581621e-01 6.5954577072382212e-02 0.0000000000000000e+00  7.8855575273416600e-01 6.3042959937744836e-02 0.0000000000000000e+00  7.3333214587098150e-01 6.2403685331057814e-02 0.0000000000000000e+00  7.0955874691482868e-01 7.2619167171598623e-02 0.0000000000000000e+00  7.4507457398064181e-01 9.6873302211149745e-02 0.0000000000000000e+00  8.4870785059669662e-01 1.2344028313150979e-01 0.0000000000000000e+00  9.8691465380581933e-01 1.5136940806517210e-01 0.0000000000000000e+00  1.1084947266000886e+00 1.5002151143526027e-01 0.0000000000000000e+00  1.1718800200993240e+00 1.2471321090959742e-01 0.0000000000000000e+00  1.1766704592656072e+00 9.2719420223248528e-02 0.0000000000000000e+00  1.1515324341584856e+00 6.1317937621404812e-02 0.0000000000000000e+00  1.1254949843449349e+00 3.8177348311124855e-02 0.0000000000000000e+00  1.1090687448047869e+00 2.3387443920491791e-02 0.0000000000000000e+00  1.1009174090070992e+00 1.3660975812557114e-02 0.0000000000000000e+00  1.0960313319493202e+00 6.1461873420090383e-03 0.0000000000000000e+00  1.0869610628215556e+00 0.0000000000000000e+00 0.0000000000000000e+00  1.0790877754016939e+00 0.0000000000000000e+00 0.0000000000000000e+00  1.0713851956577429e+00 0.0000000000000000e+00 0.0000000000000000e+00  1.0656198547960998e+00 0.0000000000000000e+00 0.0000000000000000e+00  1.0614587605354970e+00 0.0000000000000000e+00 0.0000000000000000e+00  1.0602365398353986e+00 0.0000000000000000e+00 0.0000000000000000e+00  1.0611993091048983e+00 0.0000000000000000e+00 0.0000000000000000e+00  1.0638603123398140e+00 0.0000000000000000e+00 0.0000000000000000e+00  1.0661457501929783e+00 0.0000000000000000e+00 0.0000000000000000e+00  1.0682318020149091e+00 0.0000000000000000e+00 0.0000000000000000e+00  1.0687350046861352e+00 0.0000000000000000e+00 0.0000000000000000e+00  1.0674284403133802e+00 0.0000000000000000e+00 0.0000000000000000e+00  1.0643851165440010e+00 0.0000000000000000e+00 0.0000000000000000e+00  1.0609504903739240e+00 0.0000000000000000e+00 0.0000000000000000e+00  1.0563000313234756e+00 0.0000000000000000e+00 0.0000000000000000e+00  1.0534278582452727e+00 0.0000000000000000e+00 0.0000000000000000e+00  1.0506690802380798e+00 0.0000000000000000e+00 0.0000000000000000e+00  1.0504617916078383e+00 0.0000000000000000e+00 0.0000000000000000e+00  1.0519976304718077e+00 0.0000000000000000e+00 0.0000000000000000e+00  1.0556336149531262e+00 0.0000000000000000e+00 0.0000000000000000e+00  1.0594557134568463e+00 0.0000000000000000e+00 0.0000000000000000e+00  1.0625838742595202e+00 0.0000000000000000e+00 0.0000000000000000e+00  1.0647096205827185e+00 0.0000000000000000e+00 0.0000000000000000e+00  1.0620929706970139e+00 0.0000000000000000e+00 0.0000000000000000e+00  1.0586412242513890e+00 0.0000000000000000e+00 0.0000000000000000e+00  1.0536256197389304e+00 0.0000000000000000e+00 0.0000000000000000e+00  1.0503697429642720e+00 0.0000000000000000e+00 0.0000000000000000e+00  1.0491150539278160e+00 0.0000000000000000e+00 0.0000000000000000e+00  1.0484898899257442e+00 0.0000000000000000e+00 0.0000000000000000e+00  1.0479355757392157e+00 0.0000000000000000e+00 0.0000000000000000e+00  1.0513117761160404e+00 0.0000000000000000e+00 0.0000000000000000e+00  1.0556551809164849e+00 0.0000000000000000e+00 0.0000000000000000e+00  1.0592799488623472e+00 0.0000000000000000e+00 0.0000000000000000e+00  1.0625393539438215e+00 0.0000000000000000e+00 0.0000000000000000e+00  1.0639588749710616e+00 0.0000000000000000e+00 0.0000000000000000e+00  1.0624214602187532e+00 0.0000000000000000e+00 0.0000000000000000e+00  1.0594961314862277e+00 0.0000000000000000e+00 0.0000000000000000e+00  1.0548605646815994e+00 0.0000000000000000e+00 0.0000000000000000e+00  1.0488405522241415e+00 0.0000000000000000e+00 0.0000000000000000e+00  1.0447145526186818e+00 0.0000000000000000e+00 0.0000000000000000e+00  1.0420603680621348e+00 0.0000000000000000e+00 0.0000000000000000e+00  1.0406157041600326e+00 0.0000000000000000e+00 0.0000000000000000e+00  1.0424736646943200e+00 0.0000000000000000e+00 0.0000000000000000e+00  1.0461292768994674e+00 0.0000000000000000e+00 0.0000000000000000e+00  1.0499880313331917e+00 0.0000000000000000e+00 0.0000000000000000e+00  1.0554406243167724e+00 0.0000000000000000e+00 0.0000000000000000e+00  1.0599458388241842e+00 0.0000000000000000e+00 0.0000000000000000e+00  1.0618011016274134e+00 0.0000000000000000e+00 0.0000000000000000e+00  1.0616846573597960e+00 0.0000000000000000e+00 0.0000000000000000e+00  1.0592998826098536e+00 0.0000000000000000e+00 0.0000000000000000e+00  1.0547912579602681e+00 0.0000000000000000e+00 0.0000000000000000e+00  1.0500247570693795e+00 0.0000000000000000e+00 0.0000000000000000e+00  1.0457382808584843e+00 0.0000000000000000e+00 0.0000000000000000e+00  1.0427417279358546e+00 0.0000000000000000e+00 0.0000000000000000e+00  1.0427283113587478e+00 0.0000000000000000e+00 0.0000000000000000e+00  1.0440414062813570e+00 0.0000000000000000e+00 0.0000000000000000e+00  1.0480890830379288e+00 0.0000000000000000e+00 0.0000000000000000e+00  1.0546241374531775e+00 0.0000000000000000e+00 0.0000000000000000e+00  1.0620647912530237e+00 0.0000000000000000e+00 0.0000000000000000e+00  1.0691211987937970e+00 0.0000000000000000e+00 0.0000000000000000e+00  1.0751688869448894e+00 0.0000000000000000e+00 0.0000000000000000e+00  1.0804876181656706e+00 0.0000000000000000e+00 0.0000000000000000e+00  1.0852170416926776e+00 0.0000000000000000e+00 0.0000000000000000e+00  1.0878372851165738e+00 0.0000000000000000e+00 0.0000000000000000e+00  1.0891376944341529e+00 0.0000000000000000e+00 0.0000000000000000e+00  1.0909319689444708e+00 0.0000000000000000e+00 0.0000000000000000e+00  1.0903277422777145e+00 0.0000000000000000e+00 0.0000000000000000e+00  1.0898761840869859e+00 0.0000000000000000e+00 0.0000000000000000e+00  1.0882312320044809e+00 0.0000000000000000e+00 0.0000000000000000e+00  1.0849214307426529e+00 0.0000000000000000e+00 0.0000000000000000e+00  1.0806707743788075e+00 0.0000000000000000e+00 0.0000000000000000e+00  1.0756402639028126e+00 0.0000000000000000e+00 0.0000000000000000e+00  1.0696288124191566e+00 0.0000000000000000e+00 0.0000000000000000e+00  1.0621975308734621e+00 0.0000000000000000e+00 0.0000000000000000e+00  1.0553036116769756e+00 0.0000000000000000e+00 0.0000000000000000e+00  1.0476326297110305e+00 0.0000000000000000e+00 0.0000000000000000e+00  1.0328677324511182e+00 0.0000000000000000e+00 0.0000000000000000e+00  1.0264155727053474e+00 0.0000000000000000e+00 0.0000000000000000e+00  1.0212709779233853e+00 0.0000000000000000e+00 0.0000000000000000e+00  1.0166167957886267e+00 0.0000000000000000e+00 0.0000000000000000e+00  1.0128241658354917e+00 0.0000000000000000e+00 0.0000000000000000e+00  1.0098347055001811e+00 0.0000000000000000e+00 0.0000000000000000e+00  1.0075824771514068e+00 0.0000000000000000e+00 0.0000000000000000e+00  1.0054278835089570e+00 0.0000000000000000e+00 0.0000000000000000e+00  1.0039485219783582e+00 0.0000000000000000e+00 0.0000000000000000e+00  1.0029596936687486e+00 0.0000000000000000e+00 0.0000000000000000e+00  1.0017925204331304e+00 0.0000000000000000e+00 0.0000000000000000e+00  1.0016319608472770e+00 0.0000000000000000e+00 0.0000000000000000e+00  1.0005484557943263e+00 0.0000000000000000e+00 0.0000000000000000e+00  1.0004887841514598e+00 0.0000000000000000e+00 0.0000000000000000e+00  1.0000101617526811e+00 0.0000000000000000e+00 0.0000000000000000e+00  1.0006221253022700e+00 0.0000000000000000e+00 0.0000000000000000e+00  1.0003087487612055e+00 0.0000000000000000e+00 0.0000000000000000e+00  9.9980703720558095e-01 0.0000000000000000e+00 0.0000000000000000e+00  1.0000001299862353e+00 0.0000000000000000e+00 0.0000000000000000e+00  1.0000001299862353e+00 0.0000000000000000e+00 0.0000000000000000e+00  1.0000001299862353e+00 0.0000000000000000e+00 0.0000000000000000e+00  1.0000001299862353e+00 0.0000000000000000e+00 0.0000000000000000e+00  1.0000001299862353e+00 0.0000000000000000e+00 0.0000000000000000e+00  1.0000001299862353e+00 0.0000000000000000e+00 0.0000000000000000e+00  1.0000001299862353e+00 0.0000000000000000e+00 0.0000000000000000e+00  1.0000001299862353e+00 0.0000000000000000e+00 0.0000000000000000e+00  1.0000001299862353e+00 0.0000000000000000e+00 0.0000000000000000e+00  1.0000001299862353e+00 0.0000000000000000e+00 0.0000000000000000e+00  1.0000001299862353e+00 0.0000000000000000e+00 0.0000000000000000e+00  1.0000001299862353e+00 0.0000000000000000e+00 0.0000000000000000e+00  1.0000001299862353e+00 0.0000000000000000e+00 0.0000000000000000e+00  1.0000001299862353e+00 0.0000000000000000e+00 0.0000000000000000e+00  1.0000001299862353e+00 0.0000000000000000e+00 0.0000000000000000e+00  1.0000001299862353e+00 0.0000000000000000e+00 0.0000000000000000e+00  1.0000001299862353e+00 0.0000000000000000e+00 0.0000000000000000e+00  1.0000001299862353e+00 0.0000000000000000e+00 0.0000000000000000e+00  1.0000001299862353e+00 0.0000000000000000e+00 0.0000000000000000e+00  1.0000001299862353e+00 0.0000000000000000e+00 0.0000000000000000e+00  1.0400696445778959e+00 -9.5949739588709424e-03 0.0000000000000000e+00  1.0369173650671535e+00 -1.9352190789361096e-02 0.0000000000000000e+00  1.0344179286129289e+00 -2.9749678538346255e-02 0.0000000000000000e+00  1.0282657397703132e+00 -4.0641209496382877e-02 0.0000000000000000e+00  1.0217928085773409e+00 -5.5546601711780677e-02 0.0000000000000000e+00  1.0261177684817415e+00 -5.9162548543318344e-02 0.0000000000000000e+00  1.0301115611098708e+00 -6.2864631186948461e-02 0.0000000000000000e+00  1.0351088626326475e+00 -6.6303199123255108e-02 0.0000000000000000e+00  1.0404068832016482e+00 -6.9607487636724710e-02 0.0000000000000000e+00  1.0463435220388304e+00 -7.2530943422103214e-02 0.0000000000000000e+00  1.0528791798662809e+00 -7.5108776947115610e-02 0.0000000000000000e+00  1.0598966269378307e+00 -7.7050759394855339e-02 0.0000000000000000e+00  1.0674416767484662e+00 -7.8462293787748716e-02 0.0000000000000000e+00  1.0751676603500027e+00 -7.9009086156731856e-02 0.0000000000000000e+00  1.0832493567966186e+00 -7.8902677543589400e-02 0.0000000000000000e+00  1.0914290734365679e+00 -7.8011570665018445e-02 0.0000000000000000e+00  1.0997276769441084e+00 -7.6058660844282103e-02 0.0000000000000000e+00  1.1077270400063080e+00 -7.3164571166087586e-02 0.0000000000000000e+00  1.1155038376247748e+00 -6.9517085844046117e-02 0.0000000000000000e+00  1.1229094443781136e+00 -6.5014400122600485e-02 0.0000000000000000e+00  1.1297376674182744e+00 -5.9688969849803132e-02 0.0000000000000000e+00  1.1360020281927627e+00 -5.3666825189970936e-02 0.0000000000000000e+00  1.1415844302928255e+00 -4.7045680031912215e-02 0.0000000000000000e+00  1.1464775211659786e+00 -3.9716359134734050e-02 0.0000000000000000e+00  1.1506110082284418e+00 -3.2062517629779720e-02 0.0000000000000000e+00  1.1539529622979383e+00 -2.3821927623186134e-02 0.0000000000000000e+00  1.1563176025271669e+00 -1.5146913689486854e-02 0.0000000000000000e+00  1.1578983048190052e+00 -6.2111534232033557e-03 0.0000000000000000e+00  1.1583650687564027e+00 2.9400579428216019e-03 0.0000000000000000e+00  1.1578114244578905e+00 1.2282114811822951e-02 0.0000000000000000e+00  1.1560991388427884e+00 2.1665348816038568e-02 0.0000000000000000e+00  1.1531689001613963e+00 3.0862884349145824e-02 0.0000000000000000e+00  1.1490642662882107e+00 3.9904669846455007e-02 0.0000000000000000e+00  1.1436828658897464e+00 4.8577301406014760e-02 0.0000000000000000e+00  1.1371372160911331e+00 5.6576911286164183e-02 0.0000000000000000e+00  1.1294549472526327e+00 6.3776605169935191e-02 0.0