<?xml version="1.0"?>
<VTKFile type="UnstructuredGrid"  version="0.1"  >
<UnstructuredGrid>
<Piece  NumberOfPoints="10199" NumberOfCells="20110">
<Points>
<DataArray  type="Float64"  NumberOfComponents="3"  format="ascii">0 -5 0  8 -5 0  30 -5 0  40 -5 0  40 5 0  30 5 0  8 5 0  0 5 0  8 -2.5 0  15 -2.5 0  30 -2.5 0  30 2.5 0  15 2.5 0  8 2.5 0  10 0.5 0  10 -0.5 0  0 0 0  0.4210526315780956 -5 0  0.8421052631563433 -5 0  1.263157894734281 -5 0  1.684210526311999 -5 0  2.105263157889717 -5 0  2.526315789467435 -5 0  2.947368421045153 -5 0  3.368421052622872 -5 0  3.78947368420059 -5 0  4.210526315779479 -5 0  4.631578947359537 -5 0  5.052631578939595 -5 0  5.473684210519653 -5 0  5.89473684209971 -5 0  6.315789473679768 -5 0  6.736842105259826 -5 0  7.157894736839884 -5 0  7.578947368419942 -5 0  8.407407407405314 -5 0  8.814814814810628 -5 0  9.222222222215942 -5 0  9.629629629621256 -5 0  10.03703703702657 -5 0  10.44444444443188 -5 0  10.8518518518372 -5 0  11.25925925924251 -5 0  11.66666666664783 -5 0  12.07407407405314 -5 0  12.48148148145846 -5 0  12.88888888886377 -5 0  13.29629629626908 -5 0  13.7037037036744 -5 0  14.11111111107971 -5 0  14.51851851848502 -5 0  14.92592592589034 -5 0  15.33333333329565 -5 0  15.74074074070096 -5 0  16.14814814810754 -5 0  16.55555555551614 -5 0  16.96296296292474 -5 0  17.37037037033335 -5 0  17.77777777774195 -5 0  18.18518518515056 -5 0  18.59259259255916 -5 0  18.99999999996776 -5 0  19.40740740737636 -5 0  19.81481481478497 -5 0  20.22222222219357 -5 0  20.62962962960217 -5 0  21.03703703701077 -5 0  21.44444444441937 -5 0  21.85185185182797 -5 0  22.25925925923657 -5 0  22.66666666664518 -5 0  23.07407407405378 -5 0  23.48148148146238 -5 0  23.88888888887098 -5 0  24.29629629627958 -5 0  24.70370370368818 -5 0  25.11111111109678 -5 0  25.51851851850539 -5 0  25.92592592591399 -5 0  26.33333333332259 -5 0  26.74074074073119 -5 0  27.14814814813979 -5 0  27.55555555554839 -5 0  27.96296296295699 -5 0  28.3703703703656 -5 0  28.7777777777742 -5 0  29.1851851851828 -5 0  29.5925925925914 -5 0  30.41666666667852 -5 0  30.83333333335704 -5 0  31.25000000003556 -5 0  31.66666666671408 -5 0  32.08333333338936 -5 0  32.50000000005308 -5 0  32.9166666667168 -5 0  33.33333333338052 -5 0  33.75000000004424 -5 0  34.16666666670795 -5 0  34.58333333337167 -5 0  35.00000000003539 -5 0  35.41666666669911 -5 0  35.83333333336282 -5 0  36.25000000002654 -5 0  36.66666666669026 -5 0  37.08333333335398 -5 0  37.50000000001769 -5 0  37.91666666668141 -5 0  38.33333333334513 -5 0  38.75000000000885 -5 0  39.16666666667257 -5 0  39.58333333333628 -5 0  40 -4.583333333332821 0  40 -4.166666666665642 0  40 -3.74999999999855 0  40 -3.333333333333135 0  40 -2.916666666667806 0  40 -2.500000000002478 0  40 -2.083333333337148 0  40 -1.666666666671818 0  40 -1.250000000006488 0  40 -0.8333333333405228 0  40 -0.4166666666733416 0  40 -6.163070054299169e-12 0  40 0.4166666666610173 0  40 0.8333333333281976 0  40 1.249999999995378 0  40 1.666666666662558 0  40 2.083333333329739 0  40 2.499999999996919 0  40 2.916666666664099 0  40 3.33333333333128 0  40 3.74999999999846 0  40 4.166666666665641 0  40 4.583333333332821 0  39.58333333333628 5 0  39.16666666667256 5 0  38.75000000000885 5 0  38.33333333334513 5 0  37.91666666668141 5 0  37.50000000001769 5 0  37.08333333335398 5 0  36.66666666669025 5 0  36.25000000002654 5 0  35.83333333336282 5 0  35.41666666669911 5 0  35.00000000003539 5 0  34.58333333337167 5 0  34.16666666670795 5 0  33.75000000004424 5 0  33.33333333338052 5 0  32.9166666667168 5 0  32.50000000005308 5 0  32.08333333338936 5 0  31.66666666671408 5 0  31.25000000003556 5 0  30.83333333335704 5 0  30.41666666667852 5 0  29.59259259259259 5 0  29.18518518518519 5 0  28.77777777777778 5 0  28.37037037037037 5 0  27.96296296296296 5 0  27.55555555555556 5 0  27.14814814814815 5 0  26.74074074074074 5 0  26.33333333333333 5 0  25.92592592592593 5 0  25.51851851851852 5 0  25.11111111111111 5 0  24.7037037037037 5 0  24.2962962962963 5 0  23.88888888888889 5 0  23.48148148148148 5 0  23.07407407407408 5 0  22.66666666666667 5 0  22.25925925925926 5 0  21.85185185185185 5 0  21.44444444444445 5 0  21.03703703703704 5 0  20.62962962962963 5 0  20.22222222222222 5 0  19.81481481481482 5 0  19.40740740740741 5 0  19 5 0  18.5925925925926 5 0  18.18518518518519 5 0  17.77777777777778 5 0  17.37037037037037 5 0  16.96296296296296 5 0  16.55555555555556 5 0  16.14814814814815 5 0  15.74074074074074 5 0  15.33333333333333 5 0  14.92592592592593 5 0  14.51851851851852 5 0  14.11111111111111 5 0  13.70370370370371 5 0  13.2962962962963 5 0  12.88888888888889 5 0  12.48148148148148 5 0  12.07407407407408 5 0  11.66666666666667 5 0  11.25925925925926 5 0  10.85185185185185 5 0  10.44444444444445 5 0  10.03703703703704 5 0  9.629629629629633 5 0  9.222222222222221 5 0  8.814814814814817 5 0  8.407407407407408 5 0  7.5789473684193 5 0  7.157894736838599 5 0  6.73684210526082 5 0  6.315789473684795 5 0  5.894736842108769 5 0  5.473684210532742 5 0  5.052631578956715 5 0  4.631578947380689 5 0  4.210526315804662 5 0  3.789473684226299 5 0  3.368421052645599 5 0  2.947368421064898 5 0  2.526315789484198 5 0  2.105263157903499 5 0  1.6842105263228 5 0  1.2631578947421 5 0  0.8421052631613994 5 0  0.4210526315806993 5 0  0 4.545454545454545 0  0 4.09090909090909 0  0 3.636363636363634 0  0 3.18181818181818 0  0 2.727272727272726 0  0 2.272727272727271 0  0 1.818181818181817 0  0 1.363636363636363 0  0 0.9090909090909092 0  0 0.454545454545455 0  0 -0.4545454545450807 0  0 -0.9090909090895867 0  0 -1.363636363633713 0  0 -1.818181818177841 0  0 -2.272727272723127 0  0 -2.727272727269273 0  0 -3.181818181815419 0  0 -3.636363636361564 0  0 -4.090909090907709 0  0 -4.545454545453855 0  8 -4.499999999999999 0  8 -3.999999999999999 0  8 -3.499999999999999 0  8 -3 0  8.137254901963859 -2.5 0  8.274509803926303 -2.5 0  8.411764705886863 -2.5 0  8.549019607849138 -2.5 0  8.686274509809513 -2.5 0  8.82352941176989 -2.5 0  8.960784313730265 -2.5 0  9.098039215690642 -2.5 0  9.235294117651017 -2.5 0  9.372549019611395 -2.5 0  9.50980392157177 -2.5 0  9.647058823532147 -2.5 0  9.784313725492522 -2.5 0  9.921568627452897 -2.5 0  10.05882352941327 -2.5 0  10.19607843137365 -2.5 0  10.33333333333402 -2.5 0  10.4705882352944 -2.5 0  10.60784313725478 -2.5 0  10.74509803921515 -2.5 0  10.88235294117553 -2.5 0  11.0196078431359 -2.5 0  11.15686274509628 -2.5 0  11.29411764705665 -2.5 0  11.43137254901703 -2.5 0  11.56862745097915 -2.5 0  11.70588235294301 -2.5 0  11.84313725490686 -2.5 0  11.98039215687072 -2.5 0  12.11764705883209 -2.5 0  12.25490196079247 -2.5 0  12.39215686275285 -2.5 0  12.52941176471322 -2.5 0  12.6666666666736 -2.5 0  12.80392156863397 -2.5 0  12.94117647059435 -2.5 0  13.07843137255473 -2.5 0  13.2156862745151 -2.5 0  13.35294117647548 -2.5 0  13.49019607843586 -2.5 0  13.62745098039623 -2.5 0  13.76470588235661 -2.5 0  13.90196078431699 -2.5 0  14.03921568627736 -2.5 0  14.17647058823774 -2.5 0  14.31372549019812 -2.5 0  14.45098039215849 -2.5 0  14.58823529411887 -2.5 0  14.72549019607925 -2.5 0  14.86274509803962 -2.5 0  15.20270270270254 -2.5 0  15.40540540540509 -2.5 0  15.60810810810763 -2.5 0  15.81081081081017 -2.5 0  16.01351351351227 -2.5 0  16.21621621621265 -2.5 0  16.41891891891279 -2.5 0  16.62162162161294 -2.5 0  16.82432432431308 -2.5 0  17.02702702701322 -2.5 0  17.22972972971337 -2.5 0  17.43243243241351 -2.5 0  17.63513513511365 -2.5 0  17.83783783781379 -2.5 0  18.04054054051394 -2.5 0  18.24324324321408 -2.5 0  18.44594594591422 -2.5 0  18.64864864861436 -2.5 0  18.85135135131451 -2.5 0  19.05405405401465 -2.5 0  19.25675675671479 -2.5 0  19.45945945941494 -2.5 0  19.66216216211508 -2.5 0  19.86486486481522 -2.5 0  20.06756756751536 -2.5 0  20.27027027021551 -2.5 0  20.47297297291565 -2.5 0  20.6756756756158 -2.5 0  20.87837837831594 -2.5 0  21.08108108101608 -2.5 0  21.28378378371622 -2.5 0  21.48648648641637 -2.5 0  21.68918918911651 -2.5 0  21.89189189181666 -2.5 0  22.0945945945168 -2.5 0  22.29729729721694 -2.5 0  22.49999999991778 -2.5 0  22.70270270262203 -2.5 0  22.90540540532697 -2.5 0  23.10810810803191 -2.5 0  23.31081081073686 -2.5 0  23.5135135134418 -2.5 0  23.71621621614674 -2.5 0  23.91891891885169 -2.5 0  24.12162162155663 -2.5 0  24.32432432426158 -2.5 0  24.52702702696652 -2.5 0  24.72972972967146 -2.5 0  24.93243243237641 -2.5 0  25.13513513508135 -2.5 0  25.3378378377863 -2.5 0  25.54054054049124 -2.5 0  25.74324324319618 -2.5 0  25.94594594590112 -2.5 0  26.14864864860607 -2.5 0  26.35135135131101 -2.5 0  26.55405405401596 -2.5 0  26.7567567567209 -2.5 0  26.95945945942584 -2.5 0  27.16216216213079 -2.5 0  27.36486486483573 -2.5 0  27.56756756754068 -2.5 0  27.77027027024562 -2.5 0  27.97297297295056 -2.5 0  28.1756756756555 -2.5 0  28.37837837836045 -2.5 0  28.5810810810654 -2.5 0  28.78378378377034 -2.5 0  28.98648648647528 -2.5 0  29.18918918918023 -2.5 0  29.39189189188517 -2.5 0  29.59459459459011 -2.5 0  29.79729729729506 -2.5 0  30 -3.000000000000001 0  30 -3.500000000000001 0  30 -4.000000000000001 0  30 -4.5 0  8 4.499999999999999 0  8 3.999999999999999 0  8 3.499999999999999 0  8 3 0  8.137254901963859 2.5 0  8.274509803926303 2.5 0  8.411764705886863 2.5 0  8.549019607849138 2.5 0  8.686274509809513 2.5 0  8.82352941176989 2.5 0  8.960784313730265 2.5 0  9.098039215690642 2.5 0  9.235294117651017 2.5 0  9.372549019611395 2.5 0  9.50980392157177 2.5 0  9.647058823532147 2.5 0  9.784313725492522 2.5 0  9.921568627452897 2.5 0  10.05882352941327 2.5 0  10.19607843137365 2.5 0  10.33333333333402 2.5 0  10.4705882352944 2.5 0  10.60784313725478 2.5 0  10.74509803921515 2.5 0  10.88235294117553 2.5 0  11.0196078431359 2.5 0  11.15686274509628 2.5 0  11.29411764705665 2.5 0  11.43137254901703 2.5 0  11.56862745097915 2.5 0  11.70588235294301 2.5 0  11.84313725490686 2.5 0  11.98039215687072 2.5 0  12.11764705883209 2.5 0  12.25490196079247 2.5 0  1
[...]
<PointData  Vectors="f_17"> 
<DataArray  type="Float64"  Name="f_17"  NumberOfComponents="3" format="ascii">1.0000001327090817e+00 0.0000000000000000e+00 0.0000000000000000e+00  1.0422837526647464e+00 0.0000000000000000e+00 0.0000000000000000e+00  1.0606570423982342e+00 0.0000000000000000e+00 0.0000000000000000e+00  1.0893659995123537e+00 0.0000000000000000e+00 0.0000000000000000e+00  1.0776041636621447e+00 0.0000000000000000e+00 0.0000000000000000e+00  1.0534317227871777e+00 0.0000000000000000e+00 0.0000000000000000e+00  1.0386520452306829e+00 0.0000000000000000e+00 0.0000000000000000e+00  1.0000001327090817e+00 0.0000000000000000e+00 0.0000000000000000e+00  1.0256998443863059e+00 -5.1514814845439960e-02 0.0000000000000000e+00  1.1362962509565051e+00 3.6115493777542002e-02 0.0000000000000000e+00  1.1292429241679589e+00 -7.5348315751755240e-02 0.0000000000000000e+00  1.0141678018079214e+00 -6.5720957112070960e-02 0.0000000000000000e+00  9.8577045713269806e-01 -2.1317331566462525e-02 0.0000000000000000e+00  1.0171116488052496e+00 5.0174756500802560e-02 0.0000000000000000e+00  0.0000000000000000e+00 0.0000000000000000e+00 0.0000000000000000e+00  0.0000000000000000e+00 0.0000000000000000e+00 0.0000000000000000e+00  1.0000001327090817e+00 0.0000000000000000e+00 0.0000000000000000e+00  9.9930907194491869e-01 0.0000000000000000e+00 0.0000000000000000e+00  9.9881281125080046e-01 0.0000000000000000e+00 0.0000000000000000e+00  1.0009379112921621e+00 0.0000000000000000e+00 0.0000000000000000e+00  1.0008729002995933e+00 0.0000000000000000e+00 0.0000000000000000e+00  1.0019890496609398e+00 0.0000000000000000e+00 0.0000000000000000e+00  1.0024616983959984e+00 0.0000000000000000e+00 0.0000000000000000e+00  1.0029032853930830e+00 0.0000000000000000e+00 0.0000000000000000e+00  1.0038459067916943e+00 0.0000000000000000e+00 0.0000000000000000e+00  1.0051715134605141e+00 0.0000000000000000e+00 0.0000000000000000e+00  1.0063490607108800e+00 0.0000000000000000e+00 0.0000000000000000e+00  1.0078652536922257e+00 0.0000000000000000e+00 0.0000000000000000e+00  1.0100936173178527e+00 0.0000000000000000e+00 0.0000000000000000e+00  1.0124402190306003e+00 0.0000000000000000e+00 0.0000000000000000e+00  1.0163658892286436e+00 0.0000000000000000e+00 0.0000000000000000e+00  1.0180724686377498e+00 0.0000000000000000e+00 0.0000000000000000e+00  1.0225951026978743e+00 0.0000000000000000e+00 0.0000000000000000e+00  1.0292692460580994e+00 0.0000000000000000e+00 0.0000000000000000e+00  1.0345747835534764e+00 0.0000000000000000e+00 0.0000000000000000e+00  1.0498982673415758e+00 0.0000000000000000e+00 0.0000000000000000e+00  1.0577501408381487e+00 0.0000000000000000e+00 0.0000000000000000e+00  1.0647585536655173e+00 0.0000000000000000e+00 0.0000000000000000e+00  1.0718764006789887e+00 0.0000000000000000e+00 0.0000000000000000e+00  1.0771874046386603e+00 0.0000000000000000e+00 0.0000000000000000e+00  1.0814481697796263e+00 0.0000000000000000e+00 0.0000000000000000e+00  1.0850774738210811e+00 0.0000000000000000e+00 0.0000000000000000e+00  1.0861463990769564e+00 0.0000000000000000e+00 0.0000000000000000e+00  1.0866049601431562e+00 0.0000000000000000e+00 0.0000000000000000e+00  1.0860657511329483e+00 0.0000000000000000e+00 0.0000000000000000e+00  1.0855670595391551e+00 0.0000000000000000e+00 0.0000000000000000e+00  1.0840363305949556e+00 0.0000000000000000e+00 0.0000000000000000e+00  1.0835542503423445e+00 0.0000000000000000e+00 0.0000000000000000e+00  1.0827965719797046e+00 0.0000000000000000e+00 0.0000000000000000e+00  1.0812983552120061e+00 0.0000000000000000e+00 0.0000000000000000e+00  1.0791958919556917e+00 0.0000000000000000e+00 0.0000000000000000e+00  1.0756450050362303e+00 0.0000000000000000e+00 0.0000000000000000e+00  1.0707075563320156e+00 0.0000000000000000e+00 0.0000000000000000e+00  1.0641764578764379e+00 0.0000000000000000e+00 0.0000000000000000e+00  1.0567306613478600e+00 0.0000000000000000e+00 0.0000000000000000e+00  1.0504541891405437e+00 0.0000000000000000e+00 0.0000000000000000e+00  1.0456673041383193e+00 0.0000000000000000e+00 0.0000000000000000e+00  1.0414290969961137e+00 0.0000000000000000e+00 0.0000000000000000e+00  1.0404665054886528e+00 0.0000000000000000e+00 0.0000000000000000e+00  1.0418205461618228e+00 0.0000000000000000e+00 0.0000000000000000e+00  1.0452486545932049e+00 0.0000000000000000e+00 0.0000000000000000e+00  1.0505307436944240e+00 0.0000000000000000e+00 0.0000000000000000e+00  1.0556484520640783e+00 0.0000000000000000e+00 0.0000000000000000e+00  1.0598886669641887e+00 0.0000000000000000e+00 0.0000000000000000e+00  1.0626839508241781e+00 0.0000000000000000e+00 0.0000000000000000e+00  1.0621731099607197e+00 0.0000000000000000e+00 0.0000000000000000e+00  1.0592835695158551e+00 0.0000000000000000e+00 0.0000000000000000e+00  1.0560698636628256e+00 0.0000000000000000e+00 0.0000000000000000e+00  1.0511110397640955e+00 0.0000000000000000e+00 0.0000000000000000e+00  1.0463363360898841e+00 0.0000000000000000e+00 0.0000000000000000e+00  1.0439042871747062e+00 0.0000000000000000e+00 0.0000000000000000e+00  1.0425779267337096e+00 0.0000000000000000e+00 0.0000000000000000e+00  1.0433110441960987e+00 0.0000000000000000e+00 0.0000000000000000e+00  1.0475930693060682e+00 0.0000000000000000e+00 0.0000000000000000e+00  1.0521551106547455e+00 0.0000000000000000e+00 0.0000000000000000e+00  1.0569080387591214e+00 0.0000000000000000e+00 0.0000000000000000e+00  1.0617140353408445e+00 0.0000000000000000e+00 0.0000000000000000e+00  1.0641086446804904e+00 0.0000000000000000e+00 0.0000000000000000e+00  1.0642630728577083e+00 0.0000000000000000e+00 0.0000000000000000e+00  1.0628931784489843e+00 0.0000000000000000e+00 0.0000000000000000e+00  1.0590817738833584e+00 0.0000000000000000e+00 0.0000000000000000e+00  1.0543728354008277e+00 0.0000000000000000e+00 0.0000000000000000e+00  1.0525105181570797e+00 0.0000000000000000e+00 0.0000000000000000e+00  1.0499468488727572e+00 0.0000000000000000e+00 0.0000000000000000e+00  1.0475391617586924e+00 0.0000000000000000e+00 0.0000000000000000e+00  1.0482777864027946e+00 0.0000000000000000e+00 0.0000000000000000e+00  1.0521708526229470e+00 0.0000000000000000e+00 0.0000000000000000e+00  1.0562687286089600e+00 0.0000000000000000e+00 0.0000000000000000e+00  1.0640015539161161e+00 0.0000000000000000e+00 0.0000000000000000e+00  1.0648172334374129e+00 0.0000000000000000e+00 0.0000000000000000e+00  1.0635809814919432e+00 0.0000000000000000e+00 0.0000000000000000e+00  1.0615547882064280e+00 0.0000000000000000e+00 0.0000000000000000e+00  1.0581752891254854e+00 0.0000000000000000e+00 0.0000000000000000e+00  1.0543787527753230e+00 0.0000000000000000e+00 0.0000000000000000e+00  1.0513821078052865e+00 0.0000000000000000e+00 0.0000000000000000e+00  1.0504575974051147e+00 0.0000000000000000e+00 0.0000000000000000e+00  1.0514818154660541e+00 0.0000000000000000e+00 0.0000000000000000e+00  1.0539306928065744e+00 0.0000000000000000e+00 0.0000000000000000e+00  1.0581490190199008e+00 0.0000000000000000e+00 0.0000000000000000e+00  1.0625005432712709e+00 0.0000000000000000e+00 0.0000000000000000e+00  1.0659297086166459e+00 0.0000000000000000e+00 0.0000000000000000e+00  1.0685163934207966e+00 0.0000000000000000e+00 0.0000000000000000e+00  1.0692417400239072e+00 0.0000000000000000e+00 0.0000000000000000e+00  1.0688882191888189e+00 0.0000000000000000e+00 0.0000000000000000e+00  1.0665721390421568e+00 0.0000000000000000e+00 0.0000000000000000e+00  1.0646577725262627e+00 0.0000000000000000e+00 0.0000000000000000e+00  1.0633158619418133e+00 0.0000000000000000e+00 0.0000000000000000e+00  1.0643398787027496e+00 0.0000000000000000e+00 0.0000000000000000e+00  1.0671669181924217e+00 0.0000000000000000e+00 0.0000000000000000e+00  1.0732674555093600e+00 0.0000000000000000e+00 0.0000000000000000e+00  1.0804407790857959e+00 0.0000000000000000e+00 0.0000000000000000e+00  1.0902571880381575e+00 -8.9846069250783100e-03 0.0000000000000000e+00  1.0920704749129739e+00 -1.9832922208100946e-02 0.0000000000000000e+00  1.0949306065201798e+00 -3.4530633108173933e-02 0.0000000000000000e+00  1.0972874022590504e+00 -5.6148295694157115e-02 0.0000000000000000e+00  1.1026980698385569e+00 -9.1767925949171533e-02 0.0000000000000000e+00  1.1059536253934588e+00 -1.4192960972282359e-01 0.0000000000000000e+00  1.0874251809556668e+00 -2.0673577179738592e-01 0.0000000000000000e+00  1.0271269038605593e+00 -2.6431495947651584e-01 0.0000000000000000e+00  9.2707829873484493e-01 -2.9840042764865837e-01 0.0000000000000000e+00  8.2242341216146797e-01 -3.0003297397542428e-01 0.0000000000000000e+00  7.5163483761227223e-01 -2.8391076791695885e-01 0.0000000000000000e+00  7.3476563297740505e-01 -2.6298983880041343e-01 0.0000000000000000e+00  7.6669085301364848e-01 -2.4069401469732385e-01 0.0000000000000000e+00  8.3463947302499275e-01 -2.1344899415602489e-01 0.0000000000000000e+00  9.1455571066270092e-01 -1.8333610741882309e-01 0.0000000000000000e+00  9.8590350066383980e-01 -1.4212759823908022e-01 0.0000000000000000e+00  1.0334947211440524e+00 -1.0119709161780051e-01 0.0000000000000000e+00  1.0597348541496645e+00 -6.2622287305447069e-02 0.0000000000000000e+00  1.0707429106644863e+00 -3.6041489199968059e-02 0.0000000000000000e+00  1.0759065845767453e+00 -1.9274852819683819e-02 0.0000000000000000e+00  1.0776884994078773e+00 -9.8994276734108919e-03 0.0000000000000000e+00  1.0787268718736942e+00 -4.8595132173830814e-03 0.0000000000000000e+00  1.0782617540604951e+00 -1.9822422157646036e-03 0.0000000000000000e+00  1.0792026877728489e+00 0.0000000000000000e+00 0.0000000000000000e+00  1.0804452531817657e+00 0.0000000000000000e+00 0.0000000000000000e+00  1.0804089131883845e+00 0.0000000000000000e+00 0.0000000000000000e+00  1.0788245681180615e+00 0.0000000000000000e+00 0.0000000000000000e+00  1.0747837973456276e+00 0.0000000000000000e+00 0.0000000000000000e+00  1.0699389752774340e+00 0.0000000000000000e+00 0.0000000000000000e+00  1.0648198602727772e+00 0.0000000000000000e+00 0.0000000000000000e+00  1.0604097501033098e+00 0.0000000000000000e+00 0.0000000000000000e+00  1.0568929688810296e+00 0.0000000000000000e+00 0.0000000000000000e+00  1.0556591026488427e+00 0.0000000000000000e+00 0.0000000000000000e+00  1.0565109383085360e+00 0.0000000000000000e+00 0.0000000000000000e+00  1.0587601747997943e+00 0.0000000000000000e+00 0.0000000000000000e+00  1.0618929619910005e+00 0.0000000000000000e+00 0.0000000000000000e+00  1.0653905934898023e+00 0.0000000000000000e+00 0.0000000000000000e+00  1.0669651901145483e+00 0.0000000000000000e+00 0.0000000000000000e+00  1.0677119572117237e+00 0.0000000000000000e+00 0.0000000000000000e+00  1.0652443178715978e+00 0.0000000000000000e+00 0.0000000000000000e+00  1.0617630440287273e+00 0.0000000000000000e+00 0.0000000000000000e+00  1.0573148660549716e+00 0.0000000000000000e+00 0.0000000000000000e+00  1.0535726943138253e+00 0.0000000000000000e+00 0.0000000000000000e+00  1.0508038410777398e+00 0.0000000000000000e+00 0.0000000000000000e+00  1.0494010447826359e+00 0.0000000000000000e+00 0.0000000000000000e+00  1.0506070972820913e+00 0.0000000000000000e+00 0.0000000000000000e+00  1.0564398713811340e+00 0.0000000000000000e+00 0.0000000000000000e+00  1.0604342463817835e+00 0.0000000000000000e+00 0.0000000000000000e+00  1.0623482518885221e+00 0.0000000000000000e+00 0.0000000000000000e+00  1.0641052466555256e+00 0.0000000000000000e+00 0.0000000000000000e+00  1.0646174766015624e+00 0.0000000000000000e+00 0.0000000000000000e+00  1.0619908508763303e+00 0.0000000000000000e+00 0.0000000000000000e+00  1.0561376086083940e+00 0.0000000000000000e+00 0.0000000000000000e+00  1.0523182017400758e+00 0.0000000000000000e+00 0.0000000000000000e+00  1.0489729607538809e+00 0.0000000000000000e+00 0.0000000000000000e+00  1.0462659556224529e+00 0.0000000000000000e+00 0.0000000000000000e+00  1.0461825177645372e+00 0.0000000000000000e+00 0.0000000000000000e+00  1.0481367306594871e+00 0.0000000000000000e+00 0.0000000000000000e+00  1.0509834533741040e+00 0.0000000000000000e+00 0.0000000000000000e+00  1.0553878363897273e+00 0.0000000000000000e+00 0.0000000000000000e+00  1.0594574298918835e+00 0.0000000000000000e+00 0.0000000000000000e+00  1.0614265815857586e+00 0.0000000000000000e+00 0.0000000000000000e+00  1.0625103226997903e+00 0.0000000000000000e+00 0.0000000000000000e+00  1.0610950664585350e+00 0.0000000000000000e+00 0.0000000000000000e+00  1.0566246392464189e+00 0.0000000000000000e+00 0.0000000000000000e+00  1.0517651211486112e+00 0.0000000000000000e+00 0.0000000000000000e+00  1.0464524092640077e+00 0.0000000000000000e+00 0.0000000000000000e+00  1.0409072186029036e+00 0.0000000000000000e+00 0.0000000000000000e+00  1.0387713937148095e+00 0.0000000000000000e+00 0.0000000000000000e+00  1.0388177098837603e+00 0.0000000000000000e+00 0.0000000000000000e+00  1.0405580092115119e+00 0.0000000000000000e+00 0.0000000000000000e+00  1.0447353224549760e+00 0.0000000000000000e+00 0.0000000000000000e+00  1.0502230351454909e+00 0.0000000000000000e+00 0.0000000000000000e+00  1.0555592858355518e+00 0.0000000000000000e+00 0.0000000000000000e+00  1.0605070797761249e+00 0.0000000000000000e+00 0.0000000000000000e+00  1.0637876295698026e+00 0.0000000000000000e+00 0.0000000000000000e+00  1.0647060210937316e+00 0.0000000000000000e+00 0.0000000000000000e+00  1.0643077932212877e+00 0.0000000000000000e+00 0.0000000000000000e+00  1.0613603637524811e+00 0.0000000000000000e+00 0.0000000000000000e+00  1.0582613575414717e+00 0.0000000000000000e+00 0.0000000000000000e+00  1.0566240941900134e+00 0.0000000000000000e+00 0.0000000000000000e+00  1.0563146416940083e+00 0.0000000000000000e+00 0.0000000000000000e+00  1.0575588247377010e+00 0.0000000000000000e+00 0.0000000000000000e+00  1.0606313005467862e+00 0.0000000000000000e+00 0.0000000000000000e+00  1.0659450215380009e+00 0.0000000000000000e+00 0.0000000000000000e+00  1.0732997446639316e+00 0.0000000000000000e+00 0.0000000000000000e+00  1.0803834446836340e+00 0.0000000000000000e+00 0.0000000000000000e+00  1.0867489291435974e+00 0.0000000000000000e+00 0.0000000000000000e+00  1.0933601673054021e+00 0.0000000000000000e+00 0.0000000000000000e+00  1.0963974723295680e+00 0.0000000000000000e+00 0.0000000000000000e+00  1.0981194383107546e+00 0.0000000000000000e+00 0.0000000000000000e+00  1.0970832204333256e+00 0.0000000000000000e+00 0.0000000000000000e+00  1.0932422757178211e+00 0.0000000000000000e+00 0.0000000000000000e+00  1.0875561639505551e+00 0.0000000000000000e+00 0.0000000000000000e+00  1.0806528099046295e+00 0.0000000000000000e+00 0.0000000000000000e+00  1.0727806935567687e+00 0.0000000000000000e+00 0.0000000000000000e+00  1.0636038108935231e+00 0.0000000000000000e+00 0.0000000000000000e+00  1.0553852739535587e+00 0.0000000000000000e+00 0.0000000000000000e+00  1.0467402555937315e+00 0.0000000000000000e+00 0.0000000000000000e+00  1.0309643639096890e+00 0.0000000000000000e+00 0.0000000000000000e+00  1.0243978953332502e+00 0.0000000000000000e+00 0.0000000000000000e+00  1.0192554591780707e+00 0.0000000000000000e+00 0.0000000000000000e+00  1.0146846874465192e+00 0.0000000000000000e+00 0.0000000000000000e+00  1.0109556946745566e+00 0.0000000000000000e+00 0.0000000000000000e+00  1.0080329097695455e+00 0.0000000000000000e+00 0.0000000000000000e+00  1.0058354649457706e+00 0.0000000000000000e+00 0.0000000000000000e+00  1.0037046623367736e+00 0.0000000000000000e+00 0.0000000000000000e+00  1.0023008967351852e+00 0.0000000000000000e+00 0.0000000000000000e+00  1.0013665234493025e+00 0.0000000000000000e+00 0.0000000000000000e+00  1.0003304320263247e+00 0.0000000000000000e+00 0.0000000000000000e+00  1.0003531157516816e+00 0.0000000000000000e+00 0.0000000000000000e+00  9.9950473594828693e-01 0.0000000000000000e+00 0.0000000000000000e+00  9.9968307880364371e-01 0.0000000000000000e+00 0.0000000000000000e+00  9.9947651524629244e-01 0.0000000000000000e+00 0.0000000000000000e+00  1.0003147954205787e+00 0.0000000000000000e+00 0.0000000000000000e+00  1.0001797717840708e+00 0.0000000000000000e+00 0.0000000000000000e+00  9.9978815994968095e-01 0.0000000000000000e+00 0.0000000000000000e+00  1.0000001327090817e+00 0.0000000000000000e+00 0.0000000000000000e+00  1.0000001327090817e+00 0.0000000000000000e+00 0.0000000000000000e+00  1.0000001327090817e+00 0.0000000000000000e+00 0.0000000000000000e+00  1.0000001327090817e+00 0.0000000000000000e+00 0.0000000000000000e+00  1.0000001327090817e+00 0.0000000000000000e+00 0.0000000000000000e+00  1.0000001327090817e+00 0.0000000000000000e+00 0.0000000000000000e+00  1.0000001327090817e+00 0.0000000000000000e+00 0.0000000000000000e+00  1.0000001327090817e+00 0.0000000000000000e+00 0.0000000000000000e+00  1.0000001327090817e+00 0.0000000000000000e+00 0.0000000000000000e+00  1.0000001327090817e+00 0.0000000000000000e+00 0.0000000000000000e+00  1.0000001327090817e+00 0.0000000000000000e+00 0.0000000000000000e+00  1.0000001327090817e+00 0.0000000000000000e+00 0.0000000000000000e+00  1.0000001327090817e+00 0.0000000000000000e+00 0.0000000000000000e+00  1.0000001327090817e+00 0.0000000000000000e+00 0.0000000000000000e+00  1.0000001327090817e+00 0.0000000000000000e+00 0.0000000000000000e+00  1.0000001327090817e+00 0.0000000000000000e+00 0.0000000000000000e+00  1.0000001327090817e+00 0.0000000000000000e+00 0.0000000000000000e+00  1.0000001327090817e+00 0.0000000000000000e+00 0.0000000000000000e+00  1.0000001327090817e+00 0.0000000000000000e+00 0.0000000000000000e+00  1.0000001327090817e+00 0.0000000000000000e+00 0.0000000000000000e+00  1.0418067523084262e+00 -9.0137092058006126e-03 0.0000000000000000e+00  1.0392593947642348e+00 -1.8316020667710060e-02 0.0000000000000000e+00  1.0377487084305899e+00 -2.8684268925668929e-02 0.0000000000000000e+00  1.0330490829349930e+00 -3.9728426005767231e-02 0.0000000000000000e+00  1.0286571478842754e+00 -5.4867229160591786e-02 0.0000000000000000e+00  1.0334307360094872e+00 -5.7791211443909522e-02 0.0000000000000000e+00  1.0377522699997250e+00 -6.0716380079661889e-02 0.0000000000000000e+00  1.0431111935832491e+00 -6.3224034744502930e-02 0.0000000000000000e+00  1.0486803901541699e+00 -6.5486174330432731e-02 0.0000000000000000e+00  1.0548420345133114e+00 -6.7200061361955124e-02 0.0000000000000000e+00  1.0615231785704486e+00 -6.8447993766613938e-02 0.0000000000000000e+00  1.0685452484453926e+00 -6.8899276001537668e-02 0.0000000000000000e+00  1.0759910546267197e+00 -6.8661573508876000e-02 0.0000000000000000e+00  1.0833848394862375e+00 -6.7393819305289274e-02 0.0000000000000000e+00  1.0909456637155781e+00 -6.5364256358862630e-02 0.0000000000000000e+00  1.0982973844509949e+00 -6.2468996422078545e-02 0.0000000000000000e+00  1.1055102951733982e+00 -5.8371426319233373e-02 0.0000000000000000e+00  1.1120363051968831e+00 -5.3241605357158703e-02 0.0000000000000000e+00  1.1179133349926675e+00 -4.7406190286747078e-02 0.0000000000000000e+00  1.1229685486751086e+00 -4.0765069435564467e-02 0.0000000000000000e+00  1.1269394336191567e+00 -3.3448161532001794e-02 0.0000000000000000e+00  1.1297762643934679e+00 -2.5665218325925568e-02 0.0000000000000000e+00  1.1314167030744662e+00 -1.7685643724600606e-02 0.0000000000000000e+00  1.1317909148629510e+00 -9.4162431164313849e-03 0.0000000000000000e+00  1.1308929181600016e+00 -1.6039893166974091e-03 0.0000000000000000e+00  1.1287443164170947e+00 6.1537044415431053e-03 0.0000000000000000e+00  1.1252560756259904e+00 1.3366185108572516e-02 0.0000000000000000e+00  1.1208522853945975e+00 1.9642151033771087e-02 0.0000000000000000e+00  1.1153520693087071e+00 2.4890463205502828e-02 0.0000000000000000e+00  1.1090929659401638e+00 2.9003091896124166e-02 0.0000000000000000e+00  1.1022406883865830e+00 3.1886652328111449e-02 0.0000000000000000e+00  1.0950689905606528e+00 3.3222961378895112e-02 0.0000000000000000e+00  1.0877602562359869e+00 3.3185784140835506e-02 0.0000000000000000e+00  1.0806821926687764e+00 3.1777827789708439e-02 0.0000000000000000e+00  1.0741628799898100e+00 2.8838502502781291e-02 0.0000000000000000e+00  1.0683572127091776e+00 2.46591