<?xml version="1.0"?>
<VTKFile type="UnstructuredGrid"  version="0.1"  >
<UnstructuredGrid>
<Piece  NumberOfPoints="10199" NumberOfCells="20110">
<Points>
<DataArray  type="Float64"  NumberOfComponents="3"  format="ascii">0 -5 0  8 -5 0  30 -5 0  40 -5 0  40 5 0  30 5 0  8 5 0  0 5 0  8 -2.5 0  15 -2.5 0  30 -2.5 0  30 2.5 0  15 2.5 0  8 2.5 0  10 0.5 0  10 -0.5 0  0 0 0  0.4210526315780956 -5 0  0.8421052631563433 -5 0  1.263157894734281 -5 0  1.684210526311999 -5 0  2.105263157889717 -5 0  2.526315789467435 -5 0  2.947368421045153 -5 0  3.368421052622872 -5 0  3.78947368420059 -5 0  4.210526315779479 -5 0  4.631578947359537 -5 0  5.052631578939595 -5 0  5.473684210519653 -5 0  5.89473684209971 -5 0  6.315789473679768 -5 0  6.736842105259826 -5 0  7.157894736839884 -5 0  7.578947368419942 -5 0  8.407407407405314 -5 0  8.814814814810628 -5 0  9.222222222215942 -5 0  9.629629629621256 -5 0  10.03703703702657 -5 0  10.44444444443188 -5 0  10.8518518518372 -5 0  11.25925925924251 -5 0  11.66666666664783 -5 0  12.07407407405314 -5 0  12.48148148145846 -5 0  12.88888888886377 -5 0  13.29629629626908 -5 0  13.7037037036744 -5 0  14.11111111107971 -5 0  14.51851851848502 -5 0  14.92592592589034 -5 0  15.33333333329565 -5 0  15.74074074070096 -5 0  16.14814814810754 -5 0  16.55555555551614 -5 0  16.96296296292474 -5 0  17.37037037033335 -5 0  17.77777777774195 -5 0  18.18518518515056 -5 0  18.59259259255916 -5 0  18.99999999996776 -5 0  19.40740740737636 -5 0  19.81481481478497 -5 0  20.22222222219357 -5 0  20.62962962960217 -5 0  21.03703703701077 -5 0  21.44444444441937 -5 0  21.85185185182797 -5 0  22.25925925923657 -5 0  22.66666666664518 -5 0  23.07407407405378 -5 0  23.48148148146238 -5 0  23.88888888887098 -5 0  24.29629629627958 -5 0  24.70370370368818 -5 0  25.11111111109678 -5 0  25.51851851850539 -5 0  25.92592592591399 -5 0  26.33333333332259 -5 0  26.74074074073119 -5 0  27.14814814813979 -5 0  27.55555555554839 -5 0  27.96296296295699 -5 0  28.3703703703656 -5 0  28.7777777777742 -5 0  29.1851851851828 -5 0  29.5925925925914 -5 0  30.41666666667852 -5 0  30.83333333335704 -5 0  31.25000000003556 -5 0  31.66666666671408 -5 0  32.08333333338936 -5 0  32.50000000005308 -5 0  32.9166666667168 -5 0  33.33333333338052 -5 0  33.75000000004424 -5 0  34.16666666670795 -5 0  34.58333333337167 -5 0  35.00000000003539 -5 0  35.41666666669911 -5 0  35.83333333336282 -5 0  36.25000000002654 -5 0  36.66666666669026 -5 0  37.08333333335398 -5 0  37.50000000001769 -5 0  37.91666666668141 -5 0  38.33333333334513 -5 0  38.75000000000885 -5 0  39.16666666667257 -5 0  39.58333333333628 -5 0  40 -4.583333333332821 0  40 -4.166666666665642 0  40 -3.74999999999855 0  40 -3.333333333333135 0  40 -2.916666666667806 0  40 -2.500000000002478 0  40 -2.083333333337148 0  40 -1.666666666671818 0  40 -1.250000000006488 0  40 -0.8333333333405228 0  40 -0.4166666666733416 0  40 -6.163070054299169e-12 0  40 0.4166666666610173 0  40 0.8333333333281976 0  40 1.249999999995378 0  40 1.666666666662558 0  40 2.083333333329739 0  40 2.499999999996919 0  40 2.916666666664099 0  40 3.33333333333128 0  40 3.74999999999846 0  40 4.166666666665641 0  40 4.583333333332821 0  39.58333333333628 5 0  39.16666666667256 5 0  38.75000000000885 5 0  38.33333333334513 5 0  37.91666666668141 5 0  37.50000000001769 5 0  37.08333333335398 5 0  36.66666666669025 5 0  36.25000000002654 5 0  35.83333333336282 5 0  35.41666666669911 5 0  35.00000000003539 5 0  34.58333333337167 5 0  34.16666666670795 5 0  33.75000000004424 5 0  33.33333333338052 5 0  32.9166666667168 5 0  32.50000000005308 5 0  32.08333333338936 5 0  31.66666666671408 5 0  31.25000000003556 5 0  30.83333333335704 5 0  30.41666666667852 5 0  29.59259259259259 5 0  29.18518518518519 5 0  28.77777777777778 5 0  28.37037037037037 5 0  27.96296296296296 5 0  27.55555555555556 5 0  27.14814814814815 5 0  26.74074074074074 5 0  26.33333333333333 5 0  25.92592592592593 5 0  25.51851851851852 5 0  25.11111111111111 5 0  24.7037037037037 5 0  24.2962962962963 5 0  23.88888888888889 5 0  23.48148148148148 5 0  23.07407407407408 5 0  22.66666666666667 5 0  22.25925925925926 5 0  21.85185185185185 5 0  21.44444444444445 5 0  21.03703703703704 5 0  20.62962962962963 5 0  20.22222222222222 5 0  19.81481481481482 5 0  19.40740740740741 5 0  19 5 0  18.5925925925926 5 0  18.18518518518519 5 0  17.77777777777778 5 0  17.37037037037037 5 0  16.96296296296296 5 0  16.55555555555556 5 0  16.14814814814815 5 0  15.74074074074074 5 0  15.33333333333333 5 0  14.92592592592593 5 0  14.51851851851852 5 0  14.11111111111111 5 0  13.70370370370371 5 0  13.2962962962963 5 0  12.88888888888889 5 0  12.48148148148148 5 0  12.07407407407408 5 0  11.66666666666667 5 0  11.25925925925926 5 0  10.85185185185185 5 0  10.44444444444445 5 0  10.03703703703704 5 0  9.629629629629633 5 0  9.222222222222221 5 0  8.814814814814817 5 0  8.407407407407408 5 0  7.5789473684193 5 0  7.157894736838599 5 0  6.73684210526082 5 0  6.315789473684795 5 0  5.894736842108769 5 0  5.473684210532742 5 0  5.052631578956715 5 0  4.631578947380689 5 0  4.210526315804662 5 0  3.789473684226299 5 0  3.368421052645599 5 0  2.947368421064898 5 0  2.526315789484198 5 0  2.105263157903499 5 0  1.6842105263228 5 0  1.2631578947421 5 0  0.8421052631613994 5 0  0.4210526315806993 5 0  0 4.545454545454545 0  0 4.09090909090909 0  0 3.636363636363634 0  0 3.18181818181818 0  0 2.727272727272726 0  0 2.272727272727271 0  0 1.818181818181817 0  0 1.363636363636363 0  0 0.9090909090909092 0  0 0.454545454545455 0  0 -0.4545454545450807 0  0 -0.9090909090895867 0  0 -1.363636363633713 0  0 -1.818181818177841 0  0 -2.272727272723127 0  0 -2.727272727269273 0  0 -3.181818181815419 0  0 -3.636363636361564 0  0 -4.090909090907709 0  0 -4.545454545453855 0  8 -4.499999999999999 0  8 -3.999999999999999 0  8 -3.499999999999999 0  8 -3 0  8.137254901963859 -2.5 0  8.274509803926303 -2.5 0  8.411764705886863 -2.5 0  8.549019607849138 -2.5 0  8.686274509809513 -2.5 0  8.82352941176989 -2.5 0  8.960784313730265 -2.5 0  9.098039215690642 -2.5 0  9.235294117651017 -2.5 0  9.372549019611395 -2.5 0  9.50980392157177 -2.5 0  9.647058823532147 -2.5 0  9.784313725492522 -2.5 0  9.921568627452897 -2.5 0  10.05882352941327 -2.5 0  10.19607843137365 -2.5 0  10.33333333333402 -2.5 0  10.4705882352944 -2.5 0  10.60784313725478 -2.5 0  10.74509803921515 -2.5 0  10.88235294117553 -2.5 0  11.0196078431359 -2.5 0  11.15686274509628 -2.5 0  11.29411764705665 -2.5 0  11.43137254901703 -2.5 0  11.56862745097915 -2.5 0  11.70588235294301 -2.5 0  11.84313725490686 -2.5 0  11.98039215687072 -2.5 0  12.11764705883209 -2.5 0  12.25490196079247 -2.5 0  12.39215686275285 -2.5 0  12.52941176471322 -2.5 0  12.6666666666736 -2.5 0  12.80392156863397 -2.5 0  12.94117647059435 -2.5 0  13.07843137255473 -2.5 0  13.2156862745151 -2.5 0  13.35294117647548 -2.5 0  13.49019607843586 -2.5 0  13.62745098039623 -2.5 0  13.76470588235661 -2.5 0  13.90196078431699 -2.5 0  14.03921568627736 -2.5 0  14.17647058823774 -2.5 0  14.31372549019812 -2.5 0  14.45098039215849 -2.5 0  14.58823529411887 -2.5 0  14.72549019607925 -2.5 0  14.86274509803962 -2.5 0  15.20270270270254 -2.5 0  15.40540540540509 -2.5 0  15.60810810810763 -2.5 0  15.81081081081017 -2.5 0  16.01351351351227 -2.5 0  16.21621621621265 -2.5 0  16.41891891891279 -2.5 0  16.62162162161294 -2.5 0  16.82432432431308 -2.5 0  17.02702702701322 -2.5 0  17.22972972971337 -2.5 0  17.43243243241351 -2.5 0  17.63513513511365 -2.5 0  17.83783783781379 -2.5 0  18.04054054051394 -2.5 0  18.24324324321408 -2.5 0  18.44594594591422 -2.5 0  18.64864864861436 -2.5 0  18.85135135131451 -2.5 0  19.05405405401465 -2.5 0  19.25675675671479 -2.5 0  19.45945945941494 -2.5 0  19.66216216211508 -2.5 0  19.86486486481522 -2.5 0  20.06756756751536 -2.5 0  20.27027027021551 -2.5 0  20.47297297291565 -2.5 0  20.6756756756158 -2.5 0  20.87837837831594 -2.5 0  21.08108108101608 -2.5 0  21.28378378371622 -2.5 0  21.48648648641637 -2.5 0  21.68918918911651 -2.5 0  21.89189189181666 -2.5 0  22.0945945945168 -2.5 0  22.29729729721694 -2.5 0  22.49999999991778 -2.5 0  22.70270270262203 -2.5 0  22.90540540532697 -2.5 0  23.10810810803191 -2.5 0  23.31081081073686 -2.5 0  23.5135135134418 -2.5 0  23.71621621614674 -2.5 0  23.91891891885169 -2.5 0  24.12162162155663 -2.5 0  24.32432432426158 -2.5 0  24.52702702696652 -2.5 0  24.72972972967146 -2.5 0  24.93243243237641 -2.5 0  25.13513513508135 -2.5 0  25.3378378377863 -2.5 0  25.54054054049124 -2.5 0  25.74324324319618 -2.5 0  25.94594594590112 -2.5 0  26.14864864860607 -2.5 0  26.35135135131101 -2.5 0  26.55405405401596 -2.5 0  26.7567567567209 -2.5 0  26.95945945942584 -2.5 0  27.16216216213079 -2.5 0  27.36486486483573 -2.5 0  27.56756756754068 -2.5 0  27.77027027024562 -2.5 0  27.97297297295056 -2.5 0  28.1756756756555 -2.5 0  28.37837837836045 -2.5 0  28.5810810810654 -2.5 0  28.78378378377034 -2.5 0  28.98648648647528 -2.5 0  29.18918918918023 -2.5 0  29.39189189188517 -2.5 0  29.59459459459011 -2.5 0  29.79729729729506 -2.5 0  30 -3.000000000000001 0  30 -3.500000000000001 0  30 -4.000000000000001 0  30 -4.5 0  8 4.499999999999999 0  8 3.999999999999999 0  8 3.499999999999999 0  8 3 0  8.137254901963859 2.5 0  8.274509803926303 2.5 0  8.411764705886863 2.5 0  8.549019607849138 2.5 0  8.686274509809513 2.5 0  8.82352941176989 2.5 0  8.960784313730265 2.5 0  9.098039215690642 2.5 0  9.235294117651017 2.5 0  9.372549019611395 2.5 0  9.50980392157177 2.5 0  9.647058823532147 2.5 0  9.784313725492522 2.5 0  9.921568627452897 2.5 0  10.05882352941327 2.5 0  10.19607843137365 2.5 0  10.33333333333402 2.5 0  10.4705882352944 2.5 0  10.60784313725478 2.5 0  10.74509803921515 2.5 0  10.88235294117553 2.5 0  11.0196078431359 2.5 0  11.15686274509628 2.5 0  11.29411764705665 2.5 0  11.43137254901703 2.5 0  11.56862745097915 2.5 0  11.70588235294301 2.5 0  11.84313725490686 2.5 0  11.98039215687072 2.5 0  12.11764705883209 2.5 0  12.25490196079247 2.5 0  1
[...]
<PointData  Vectors="f_17"> 
<DataArray  type="Float64"  Name="f_17"  NumberOfComponents="3" format="ascii">1.0000001313376352e+00 0.0000000000000000e+00 0.0000000000000000e+00  1.0399646517320900e+00 0.0000000000000000e+00 0.0000000000000000e+00  1.0651051798087057e+00 0.0000000000000000e+00 0.0000000000000000e+00  1.0932983156426406e+00 0.0000000000000000e+00 0.0000000000000000e+00  1.0725961798997576e+00 0.0000000000000000e+00 0.0000000000000000e+00  1.0493112541786289e+00 0.0000000000000000e+00 0.0000000000000000e+00  1.0408938066020210e+00 0.0000000000000000e+00 0.0000000000000000e+00  1.0000001313376352e+00 0.0000000000000000e+00 0.0000000000000000e+00  1.0223253384806155e+00 -4.9479492392592396e-02 0.0000000000000000e+00  1.0665110257389490e+00 9.1098796606303906e-02 0.0000000000000000e+00  1.1389833654919521e+00 2.9654117854849185e-02 0.0000000000000000e+00  9.9010365710389558e-01 2.3767259052138293e-02 0.0000000000000000e+00  1.0390869378965426e+00 5.8259425054671417e-02 0.0000000000000000e+00  1.0204854053567276e+00 5.2123812144624616e-02 0.0000000000000000e+00  0.0000000000000000e+00 0.0000000000000000e+00 0.0000000000000000e+00  0.0000000000000000e+00 0.0000000000000000e+00 0.0000000000000000e+00  1.0000001313376352e+00 0.0000000000000000e+00 0.0000000000000000e+00  9.9930852409762094e-01 0.0000000000000000e+00 0.0000000000000000e+00  9.9881126411319321e-01 0.0000000000000000e+00 0.0000000000000000e+00  1.0009244453230899e+00 0.0000000000000000e+00 0.0000000000000000e+00  1.0007941563897151e+00 0.0000000000000000e+00 0.0000000000000000e+00  1.0017964139954019e+00 0.0000000000000000e+00 0.0000000000000000e+00  1.0021131751822985e+00 0.0000000000000000e+00 0.0000000000000000e+00  1.0023562225498770e+00 0.0000000000000000e+00 0.0000000000000000e+00  1.0030856267292940e+00 0.0000000000000000e+00 0.0000000000000000e+00  1.0041967757485291e+00 0.0000000000000000e+00 0.0000000000000000e+00  1.0051813679184030e+00 0.0000000000000000e+00 0.0000000000000000e+00  1.0065278294155411e+00 0.0000000000000000e+00 0.0000000000000000e+00  1.0086200414680566e+00 0.0000000000000000e+00 0.0000000000000000e+00  1.0108491713562371e+00 0.0000000000000000e+00 0.0000000000000000e+00  1.0146744029229195e+00 0.0000000000000000e+00 0.0000000000000000e+00  1.0162672950230249e+00 0.0000000000000000e+00 0.0000000000000000e+00  1.0206704720266278e+00 0.0000000000000000e+00 0.0000000000000000e+00  1.0272145971846047e+00 0.0000000000000000e+00 0.0000000000000000e+00  1.0323848092869046e+00 0.0000000000000000e+00 0.0000000000000000e+00  1.0475246376100904e+00 0.0000000000000000e+00 0.0000000000000000e+00  1.0554608614192280e+00 0.0000000000000000e+00 0.0000000000000000e+00  1.0627621126321127e+00 0.0000000000000000e+00 0.0000000000000000e+00  1.0704612840776917e+00 0.0000000000000000e+00 0.0000000000000000e+00  1.0767362730488845e+00 0.0000000000000000e+00 0.0000000000000000e+00  1.0823921318862968e+00 0.0000000000000000e+00 0.0000000000000000e+00  1.0878043954669598e+00 0.0000000000000000e+00 0.0000000000000000e+00  1.0909127544816806e+00 0.0000000000000000e+00 0.0000000000000000e+00  1.0934324017305865e+00 0.0000000000000000e+00 0.0000000000000000e+00  1.0945349057015341e+00 0.0000000000000000e+00 0.0000000000000000e+00  1.0948385998721559e+00 0.0000000000000000e+00 0.0000000000000000e+00  1.0928128603252638e+00 0.0000000000000000e+00 0.0000000000000000e+00  1.0903526954931733e+00 0.0000000000000000e+00 0.0000000000000000e+00  1.0861372577141357e+00 0.0000000000000000e+00 0.0000000000000000e+00  1.0802965632156634e+00 0.0000000000000000e+00 0.0000000000000000e+00  1.0736694799712465e+00 0.0000000000000000e+00 0.0000000000000000e+00  1.0662852513628083e+00 0.0000000000000000e+00 0.0000000000000000e+00  1.0591079185298915e+00 0.0000000000000000e+00 0.0000000000000000e+00  1.0524621310080939e+00 0.0000000000000000e+00 0.0000000000000000e+00  1.0472425018275502e+00 0.0000000000000000e+00 0.0000000000000000e+00  1.0452498998188602e+00 0.0000000000000000e+00 0.0000000000000000e+00  1.0460645384924674e+00 0.0000000000000000e+00 0.0000000000000000e+00  1.0478305079105594e+00 0.0000000000000000e+00 0.0000000000000000e+00  1.0519584088990237e+00 0.0000000000000000e+00 0.0000000000000000e+00  1.0564932059650884e+00 0.0000000000000000e+00 0.0000000000000000e+00  1.0602834064973552e+00 0.0000000000000000e+00 0.0000000000000000e+00  1.0629363349730323e+00 0.0000000000000000e+00 0.0000000000000000e+00  1.0628449961869857e+00 0.0000000000000000e+00 0.0000000000000000e+00  1.0605376870071002e+00 0.0000000000000000e+00 0.0000000000000000e+00  1.0567304896548857e+00 0.0000000000000000e+00 0.0000000000000000e+00  1.0512334567391355e+00 0.0000000000000000e+00 0.0000000000000000e+00  1.0457964129875901e+00 0.0000000000000000e+00 0.0000000000000000e+00  1.0430342831769939e+00 0.0000000000000000e+00 0.0000000000000000e+00  1.0411690633592698e+00 0.0000000000000000e+00 0.0000000000000000e+00  1.0414042340695586e+00 0.0000000000000000e+00 0.0000000000000000e+00  1.0449150712349060e+00 0.0000000000000000e+00 0.0000000000000000e+00  1.0490866668372998e+00 0.0000000000000000e+00 0.0000000000000000e+00  1.0537479109778898e+00 0.0000000000000000e+00 0.0000000000000000e+00  1.0594957817415824e+00 0.0000000000000000e+00 0.0000000000000000e+00  1.0628317754865584e+00 0.0000000000000000e+00 0.0000000000000000e+00  1.0638352731244047e+00 0.0000000000000000e+00 0.0000000000000000e+00  1.0633140013725466e+00 0.0000000000000000e+00 0.0000000000000000e+00  1.0602142933445844e+00 0.0000000000000000e+00 0.0000000000000000e+00  1.0560648534621964e+00 0.0000000000000000e+00 0.0000000000000000e+00  1.0525526044983295e+00 0.0000000000000000e+00 0.0000000000000000e+00  1.0491170384852051e+00 0.0000000000000000e+00 0.0000000000000000e+00  1.0471400845671703e+00 0.0000000000000000e+00 0.0000000000000000e+00  1.0496477402800977e+00 0.0000000000000000e+00 0.0000000000000000e+00  1.0519238502673725e+00 0.0000000000000000e+00 0.0000000000000000e+00  1.0538922087887064e+00 0.0000000000000000e+00 0.0000000000000000e+00  1.0574111554289258e+00 0.0000000000000000e+00 0.0000000000000000e+00  1.0619346904218756e+00 0.0000000000000000e+00 0.0000000000000000e+00  1.0642840092062795e+00 0.0000000000000000e+00 0.0000000000000000e+00  1.0636381171529583e+00 0.0000000000000000e+00 0.0000000000000000e+00  1.0598890891262851e+00 0.0000000000000000e+00 0.0000000000000000e+00  1.0554244443192211e+00 0.0000000000000000e+00 0.0000000000000000e+00  1.0523254674666338e+00 0.0000000000000000e+00 0.0000000000000000e+00  1.0505674177804518e+00 0.0000000000000000e+00 0.0000000000000000e+00  1.0502618889951592e+00 0.0000000000000000e+00 0.0000000000000000e+00  1.0520724478775423e+00 0.0000000000000000e+00 0.0000000000000000e+00  1.0556434868464608e+00 0.0000000000000000e+00 0.0000000000000000e+00  1.0600763307876035e+00 0.0000000000000000e+00 0.0000000000000000e+00  1.0637607441307393e+00 0.0000000000000000e+00 0.0000000000000000e+00  1.0669605557819690e+00 0.0000000000000000e+00 0.0000000000000000e+00  1.0681455567973310e+00 0.0000000000000000e+00 0.0000000000000000e+00  1.0673337031545493e+00 0.0000000000000000e+00 0.0000000000000000e+00  1.0655555372149159e+00 0.0000000000000000e+00 0.0000000000000000e+00  1.0629053333631118e+00 0.0000000000000000e+00 0.0000000000000000e+00  1.0608892271824744e+00 0.0000000000000000e+00 0.0000000000000000e+00  1.0592412939938392e+00 0.0000000000000000e+00 0.0000000000000000e+00  1.0600310238629171e+00 0.0000000000000000e+00 0.0000000000000000e+00  1.0628761607927586e+00 0.0000000000000000e+00 0.0000000000000000e+00  1.0684448246696860e+00 0.0000000000000000e+00 0.0000000000000000e+00  1.0749018501266343e+00 0.0000000000000000e+00 0.0000000000000000e+00  1.0824619499214450e+00 0.0000000000000000e+00 0.0000000000000000e+00  1.0883089068284522e+00 0.0000000000000000e+00 0.0000000000000000e+00  1.0952073537721905e+00 -3.6232426753646323e-03 0.0000000000000000e+00  1.1005830230857583e+00 -7.6871150954397382e-03 0.0000000000000000e+00  1.1112850262242064e+00 -1.2642797288713203e-02 0.0000000000000000e+00  1.1296937361072226e+00 -1.9199899861203653e-02 0.0000000000000000e+00  1.1601864627436138e+00 -2.7013442946847953e-02 0.0000000000000000e+00  1.1882161465347088e+00 -3.6209916261193707e-02 0.0000000000000000e+00  1.1871501648349372e+00 -3.8299731712644391e-02 0.0000000000000000e+00  1.1292551813068652e+00 -3.1926190124021467e-02 0.0000000000000000e+00  1.0098661791685983e+00 -9.6154709327420842e-03 0.0000000000000000e+00  8.6517192326481318e-01 2.4012295194000582e-02 0.0000000000000000e+00  7.5271224618221522e-01 5.4184710820662681e-02 0.0000000000000000e+00  7.0566805706502878e-01 6.9686592136686057e-02 0.0000000000000000e+00  7.2241041238975667e-01 6.7836573416753060e-02 0.0000000000000000e+00  7.7674790384455294e-01 6.0884999542765557e-02 0.0000000000000000e+00  8.4335736205444334e-01 4.0046290623740724e-02 0.0000000000000000e+00  9.0390133435583975e-01 2.0396610437267881e-02 0.0000000000000000e+00  9.5645936704456958e-01 1.0772528747641886e-02 0.0000000000000000e+00  1.0002441037735825e+00 8.0426794397039959e-03 0.0000000000000000e+00  1.0313731217458668e+00 9.3525961605054643e-03 0.0000000000000000e+00  1.0520409744616639e+00 8.5038034621575213e-03 0.0000000000000000e+00  1.0634085873081027e+00 7.0902545737372043e-03 0.0000000000000000e+00  1.0698891248131208e+00 4.9974940444604552e-03 0.0000000000000000e+00  1.0723279931371255e+00 2.5131513335485095e-03 0.0000000000000000e+00  1.0708968516832820e+00 0.0000000000000000e+00 0.0000000000000000e+00  1.0710905288636723e+00 0.0000000000000000e+00 0.0000000000000000e+00  1.0723468709645969e+00 0.0000000000000000e+00 0.0000000000000000e+00  1.0741404148675193e+00 0.0000000000000000e+00 0.0000000000000000e+00  1.0746154258990543e+00 0.0000000000000000e+00 0.0000000000000000e+00  1.0741333165468763e+00 0.0000000000000000e+00 0.0000000000000000e+00  1.0721883128899736e+00 0.0000000000000000e+00 0.0000000000000000e+00  1.0687034376527746e+00 0.0000000000000000e+00 0.0000000000000000e+00  1.0636356956724977e+00 0.0000000000000000e+00 0.0000000000000000e+00  1.0588196347112673e+00 0.0000000000000000e+00 0.0000000000000000e+00  1.0550116774059053e+00 0.0000000000000000e+00 0.0000000000000000e+00  1.0527363399674321e+00 0.0000000000000000e+00 0.0000000000000000e+00  1.0527356463176196e+00 0.0000000000000000e+00 0.0000000000000000e+00  1.0552571812193090e+00 0.0000000000000000e+00 0.0000000000000000e+00  1.0583660421519396e+00 0.0000000000000000e+00 0.0000000000000000e+00  1.0625637721763719e+00 0.0000000000000000e+00 0.0000000000000000e+00  1.0647745103941382e+00 0.0000000000000000e+00 0.0000000000000000e+00  1.0659392329493920e+00 0.0000000000000000e+00 0.0000000000000000e+00  1.0648921085901675e+00 0.0000000000000000e+00 0.0000000000000000e+00  1.0626147062922673e+00 0.0000000000000000e+00 0.0000000000000000e+00  1.0589758822245219e+00 0.0000000000000000e+00 0.0000000000000000e+00  1.0544396743731699e+00 0.0000000000000000e+00 0.0000000000000000e+00  1.0512823095572299e+00 0.0000000000000000e+00 0.0000000000000000e+00  1.0485497477290002e+00 0.0000000000000000e+00 0.0000000000000000e+00  1.0504908466877918e+00 0.0000000000000000e+00 0.0000000000000000e+00  1.0527869408808190e+00 0.0000000000000000e+00 0.0000000000000000e+00  1.0573341003096390e+00 0.0000000000000000e+00 0.0000000000000000e+00  1.0624749671119884e+00 0.0000000000000000e+00 0.0000000000000000e+00  1.0649838578492810e+00 0.0000000000000000e+00 0.0000000000000000e+00  1.0636843051159737e+00 0.0000000000000000e+00 0.0000000000000000e+00  1.0625010143600990e+00 0.0000000000000000e+00 0.0000000000000000e+00  1.0593090769570692e+00 0.0000000000000000e+00 0.0000000000000000e+00  1.0542920317162277e+00 0.0000000000000000e+00 0.0000000000000000e+00  1.0499860805202423e+00 0.0000000000000000e+00 0.0000000000000000e+00  1.0466765863756560e+00 0.0000000000000000e+00 0.0000000000000000e+00  1.0444151733128608e+00 0.0000000000000000e+00 0.0000000000000000e+00  1.0450405381685954e+00 0.0000000000000000e+00 0.0000000000000000e+00  1.0476223917768221e+00 0.0000000000000000e+00 0.0000000000000000e+00  1.0507027296342317e+00 0.0000000000000000e+00 0.0000000000000000e+00  1.0555869346751392e+00 0.0000000000000000e+00 0.0000000000000000e+00  1.0597758334402074e+00 0.0000000000000000e+00 0.0000000000000000e+00  1.0615701730284179e+00 0.0000000000000000e+00 0.0000000000000000e+00  1.0619349847676178e+00 0.0000000000000000e+00 0.0000000000000000e+00  1.0597092903108865e+00 0.0000000000000000e+00 0.0000000000000000e+00  1.0543829845089026e+00 0.0000000000000000e+00 0.0000000000000000e+00  1.0494831464252268e+00 0.0000000000000000e+00 0.0000000000000000e+00  1.0445247990147131e+00 0.0000000000000000e+00 0.0000000000000000e+00  1.0399355113958970e+00 0.0000000000000000e+00 0.0000000000000000e+00  1.0379156770820548e+00 0.0000000000000000e+00 0.0000000000000000e+00  1.0383610003177202e+00 0.0000000000000000e+00 0.0000000000000000e+00  1.0409222660960491e+00 0.0000000000000000e+00 0.0000000000000000e+00  1.0457867973744281e+00 0.0000000000000000e+00 0.0000000000000000e+00  1.0518379560841227e+00 0.0000000000000000e+00 0.0000000000000000e+00  1.0576908434075938e+00 0.0000000000000000e+00 0.0000000000000000e+00  1.0634883512894309e+00 0.0000000000000000e+00 0.0000000000000000e+00  1.0665518975139230e+00 0.0000000000000000e+00 0.0000000000000000e+00  1.0680809367604773e+00 0.0000000000000000e+00 0.0000000000000000e+00  1.0687694869622060e+00 0.0000000000000000e+00 0.0000000000000000e+00  1.0681689859080341e+00 0.0000000000000000e+00 0.0000000000000000e+00  1.0668745404613746e+00 0.0000000000000000e+00 0.0000000000000000e+00  1.0658549264485866e+00 0.0000000000000000e+00 0.0000000000000000e+00  1.0665545624284387e+00 0.0000000000000000e+00 0.0000000000000000e+00  1.0696377944225683e+00 0.0000000000000000e+00 0.0000000000000000e+00  1.0734329203902155e+00 0.0000000000000000e+00 0.0000000000000000e+00  1.0779655353936684e+00 0.0000000000000000e+00 0.0000000000000000e+00  1.0841455468970456e+00 0.0000000000000000e+00 0.0000000000000000e+00  1.0879730207389851e+00 0.0000000000000000e+00 0.0000000000000000e+00  1.0912649266334704e+00 0.0000000000000000e+00 0.0000000000000000e+00  1.0922132564507507e+00 0.0000000000000000e+00 0.0000000000000000e+00  1.0903535813553338e+00 0.0000000000000000e+00 0.0000000000000000e+00  1.0864224990772076e+00 0.0000000000000000e+00 0.0000000000000000e+00  1.0809185154981931e+00 0.0000000000000000e+00 0.0000000000000000e+00  1.0740212401316540e+00 0.0000000000000000e+00 0.0000000000000000e+00  1.0654541717307791e+00 0.0000000000000000e+00 0.0000000000000000e+00  1.0575507080076940e+00 0.0000000000000000e+00 0.0000000000000000e+00  1.0490098454294006e+00 0.0000000000000000e+00 0.0000000000000000e+00  1.0330960323481866e+00 0.0000000000000000e+00 0.0000000000000000e+00  1.0264023483779834e+00 0.0000000000000000e+00 0.0000000000000000e+00  1.0211390739517103e+00 0.0000000000000000e+00 0.0000000000000000e+00  1.0164604021936741e+00 0.0000000000000000e+00 0.0000000000000000e+00  1.0126293701568887e+00 0.0000000000000000e+00 0.0000000000000000e+00  1.0096107765988225e+00 0.0000000000000000e+00 0.0000000000000000e+00  1.0072986010487983e+00 0.0000000000000000e+00 0.0000000000000000e+00  1.0050365711946772e+00 0.0000000000000000e+00 0.0000000000000000e+00  1.0034580824242949e+00 0.0000000000000000e+00 0.0000000000000000e+00  1.0023299391036546e+00 0.0000000000000000e+00 0.0000000000000000e+00  1.0010830478499873e+00 0.0000000000000000e+00 0.0000000000000000e+00  1.0008956692836717e+00 0.0000000000000000e+00 0.0000000000000000e+00  9.9984757736134977e-01 0.0000000000000000e+00 0.0000000000000000e+00  9.9986940815502368e-01 0.0000000000000000e+00 0.0000000000000000e+00  9.9955984016296928e-01 0.0000000000000000e+00 0.0000000000000000e+00  1.0003249847240638e+00 0.0000000000000000e+00 0.0000000000000000e+00  1.0001719822223891e+00 0.0000000000000000e+00 0.0000000000000000e+00  9.9978595594308306e-01 0.0000000000000000e+00 0.0000000000000000e+00  1.0000001313376352e+00 0.0000000000000000e+00 0.0000000000000000e+00  1.0000001313376352e+00 0.0000000000000000e+00 0.0000000000000000e+00  1.0000001313376352e+00 0.0000000000000000e+00 0.0000000000000000e+00  1.0000001313376352e+00 0.0000000000000000e+00 0.0000000000000000e+00  1.0000001313376352e+00 0.0000000000000000e+00 0.0000000000000000e+00  1.0000001313376352e+00 0.0000000000000000e+00 0.0000000000000000e+00  1.0000001313376352e+00 0.0000000000000000e+00 0.0000000000000000e+00  1.0000001313376352e+00 0.0000000000000000e+00 0.0000000000000000e+00  1.0000001313376352e+00 0.0000000000000000e+00 0.0000000000000000e+00  1.0000001313376352e+00 0.0000000000000000e+00 0.0000000000000000e+00  1.0000001313376352e+00 0.0000000000000000e+00 0.0000000000000000e+00  1.0000001313376352e+00 0.0000000000000000e+00 0.0000000000000000e+00  1.0000001313376352e+00 0.0000000000000000e+00 0.0000000000000000e+00  1.0000001313376352e+00 0.0000000000000000e+00 0.0000000000000000e+00  1.0000001313376352e+00 0.0000000000000000e+00 0.0000000000000000e+00  1.0000001313376352e+00 0.0000000000000000e+00 0.0000000000000000e+00  1.0000001313376352e+00 0.0000000000000000e+00 0.0000000000000000e+00  1.0000001313376352e+00 0.0000000000000000e+00 0.0000000000000000e+00  1.0000001313376352e+00 0.0000000000000000e+00 0.0000000000000000e+00  1.0000001313376352e+00 0.0000000000000000e+00 0.0000000000000000e+00  1.0394105004955005e+00 -8.8735722019727351e-03 0.0000000000000000e+00  1.0366625992396750e+00 -1.7977601313724390e-02 0.0000000000000000e+00  1.0348651889604097e+00 -2.8021879272920162e-02 0.0000000000000000e+00  1.0298487167621995e+00 -3.8511167781446358e-02 0.0000000000000000e+00  1.0250332511002211e+00 -5.2785738306307554e-02 0.0000000000000000e+00  1.0295383267954799e+00 -5.5699031125954340e-02 0.0000000000000000e+00  1.0335608529582099e+00 -5.8642435837740162e-02 0.0000000000000000e+00  1.0385915760924507e+00 -6.1197506745292000e-02 0.0000000000000000e+00  1.0438008498112734e+00 -6.3549506532319999e-02 0.0000000000000000e+00  1.0495685175300877e+00 -6.5391848593566379e-02 0.0000000000000000e+00  1.0558264563530535e+00 -6.6828288146435613e-02 0.0000000000000000e+00  1.0623733845290633e+00 -6.7533062494393045e-02 0.0000000000000000e+00  1.0693205556573904e+00 -6.7617269167029800e-02 0.0000000000000000e+00  1.0761610877187728e+00 -6.6758795763737333e-02 0.0000000000000000e+00  1.0831367371156675e+00 -6.5251357328383622e-02 0.0000000000000000e+00  1.0898481662674169e+00 -6.3018541902750885e-02 0.0000000000000000e+00  1.0964119756738167e+00 -5.9717731424628176e-02 0.0000000000000000e+00  1.1022766842467837e+00 -5.5551630492255394e-02 0.0000000000000000e+00  1.1074850864437025e+00 -5.0904354806530668e-02 0.0000000000000000e+00  1.1119013604320351e+00 -4.5676893693946709e-02 0.0000000000000000e+00  1.1153358250181602e+00 -4.0078441218233639e-02 0.0000000000000000e+00  1.1177256105646354e+00 -3.4270859750084030e-02 0.0000000000000000e+00  1.1191945680573567e+00 -2.8606909326409156e-02 0.0000000000000000e+00  1.1196530937127747e+00 -2.2965585621665646e-02 0.0000000000000000e+00  1.1192373131780591e+00 -1.8078968070409381e-02 0.0000000000000000e+00  1.1180364737067319e+00 -1.3420862552697753e-02 0.0000000000000000e+00  1.1161734341385041e+00 -9.5497047331852634e-03 0.0000000000000000e+00  1.1140299084064282e+00 -6.6873170459169646e-03 0.0000000000000000e+00  1.1116474926079165e+00 -4.7590561125927860e-03 0.0000000000000000e+00  1.1093031151841442e+00 -3.7462710541432531e-03 0.0000000000000000e+00  1.1072415816149264e+00 -3.4771582713828643e-03 0.0000000000000000e+00  1.1057561428958025e+00 -4.0321666977970010e-03 0.0000000000000000e+00  1.1048413253853564e+00 -5.1158205725496484e-03 0.0000000000000000e+00  1.1048775784086970e+00 -6.4908989413325277e-03 0.0000000000000000e+00  1.1058674541087856e+00 -8.0126186667224993e-03 0.0000000000000000e+00  1.1077777099108981e+00 -9.25086925956