<?xml version="1.0"?>
<VTKFile type="UnstructuredGrid"  version="0.1"  >
<UnstructuredGrid>
<Piece  NumberOfPoints="10199" NumberOfCells="20110">
<Points>
<DataArray  type="Float64"  NumberOfComponents="3"  format="ascii">0 -5 0  8 -5 0  30 -5 0  40 -5 0  40 5 0  30 5 0  8 5 0  0 5 0  8 -2.5 0  15 -2.5 0  30 -2.5 0  30 2.5 0  15 2.5 0  8 2.5 0  10 0.5 0  10 -0.5 0  0 0 0  0.4210526315780956 -5 0  0.8421052631563433 -5 0  1.263157894734281 -5 0  1.684210526311999 -5 0  2.105263157889717 -5 0  2.526315789467435 -5 0  2.947368421045153 -5 0  3.368421052622872 -5 0  3.78947368420059 -5 0  4.210526315779479 -5 0  4.631578947359537 -5 0  5.052631578939595 -5 0  5.473684210519653 -5 0  5.89473684209971 -5 0  6.315789473679768 -5 0  6.736842105259826 -5 0  7.157894736839884 -5 0  7.578947368419942 -5 0  8.407407407405314 -5 0  8.814814814810628 -5 0  9.222222222215942 -5 0  9.629629629621256 -5 0  10.03703703702657 -5 0  10.44444444443188 -5 0  10.8518518518372 -5 0  11.25925925924251 -5 0  11.66666666664783 -5 0  12.07407407405314 -5 0  12.48148148145846 -5 0  12.88888888886377 -5 0  13.29629629626908 -5 0  13.7037037036744 -5 0  14.11111111107971 -5 0  14.51851851848502 -5 0  14.92592592589034 -5 0  15.33333333329565 -5 0  15.74074074070096 -5 0  16.14814814810754 -5 0  16.55555555551614 -5 0  16.96296296292474 -5 0  17.37037037033335 -5 0  17.77777777774195 -5 0  18.18518518515056 -5 0  18.59259259255916 -5 0  18.99999999996776 -5 0  19.40740740737636 -5 0  19.81481481478497 -5 0  20.22222222219357 -5 0  20.62962962960217 -5 0  21.03703703701077 -5 0  21.44444444441937 -5 0  21.85185185182797 -5 0  22.25925925923657 -5 0  22.66666666664518 -5 0  23.07407407405378 -5 0  23.48148148146238 -5 0  23.88888888887098 -5 0  24.29629629627958 -5 0  24.70370370368818 -5 0  25.11111111109678 -5 0  25.51851851850539 -5 0  25.92592592591399 -5 0  26.33333333332259 -5 0  26.74074074073119 -5 0  27.14814814813979 -5 0  27.55555555554839 -5 0  27.96296296295699 -5 0  28.3703703703656 -5 0  28.7777777777742 -5 0  29.1851851851828 -5 0  29.5925925925914 -5 0  30.41666666667852 -5 0  30.83333333335704 -5 0  31.25000000003556 -5 0  31.66666666671408 -5 0  32.08333333338936 -5 0  32.50000000005308 -5 0  32.9166666667168 -5 0  33.33333333338052 -5 0  33.75000000004424 -5 0  34.16666666670795 -5 0  34.58333333337167 -5 0  35.00000000003539 -5 0  35.41666666669911 -5 0  35.83333333336282 -5 0  36.25000000002654 -5 0  36.66666666669026 -5 0  37.08333333335398 -5 0  37.50000000001769 -5 0  37.91666666668141 -5 0  38.33333333334513 -5 0  38.75000000000885 -5 0  39.16666666667257 -5 0  39.58333333333628 -5 0  40 -4.583333333332821 0  40 -4.166666666665642 0  40 -3.74999999999855 0  40 -3.333333333333135 0  40 -2.916666666667806 0  40 -2.500000000002478 0  40 -2.083333333337148 0  40 -1.666666666671818 0  40 -1.250000000006488 0  40 -0.8333333333405228 0  40 -0.4166666666733416 0  40 -6.163070054299169e-12 0  40 0.4166666666610173 0  40 0.8333333333281976 0  40 1.249999999995378 0  40 1.666666666662558 0  40 2.083333333329739 0  40 2.499999999996919 0  40 2.916666666664099 0  40 3.33333333333128 0  40 3.74999999999846 0  40 4.166666666665641 0  40 4.583333333332821 0  39.58333333333628 5 0  39.16666666667256 5 0  38.75000000000885 5 0  38.33333333334513 5 0  37.91666666668141 5 0  37.50000000001769 5 0  37.08333333335398 5 0  36.66666666669025 5 0  36.25000000002654 5 0  35.83333333336282 5 0  35.41666666669911 5 0  35.00000000003539 5 0  34.58333333337167 5 0  34.16666666670795 5 0  33.75000000004424 5 0  33.33333333338052 5 0  32.9166666667168 5 0  32.50000000005308 5 0  32.08333333338936 5 0  31.66666666671408 5 0  31.25000000003556 5 0  30.83333333335704 5 0  30.41666666667852 5 0  29.59259259259259 5 0  29.18518518518519 5 0  28.77777777777778 5 0  28.37037037037037 5 0  27.96296296296296 5 0  27.55555555555556 5 0  27.14814814814815 5 0  26.74074074074074 5 0  26.33333333333333 5 0  25.92592592592593 5 0  25.51851851851852 5 0  25.11111111111111 5 0  24.7037037037037 5 0  24.2962962962963 5 0  23.88888888888889 5 0  23.48148148148148 5 0  23.07407407407408 5 0  22.66666666666667 5 0  22.25925925925926 5 0  21.85185185185185 5 0  21.44444444444445 5 0  21.03703703703704 5 0  20.62962962962963 5 0  20.22222222222222 5 0  19.81481481481482 5 0  19.40740740740741 5 0  19 5 0  18.5925925925926 5 0  18.18518518518519 5 0  17.77777777777778 5 0  17.37037037037037 5 0  16.96296296296296 5 0  16.55555555555556 5 0  16.14814814814815 5 0  15.74074074074074 5 0  15.33333333333333 5 0  14.92592592592593 5 0  14.51851851851852 5 0  14.11111111111111 5 0  13.70370370370371 5 0  13.2962962962963 5 0  12.88888888888889 5 0  12.48148148148148 5 0  12.07407407407408 5 0  11.66666666666667 5 0  11.25925925925926 5 0  10.85185185185185 5 0  10.44444444444445 5 0  10.03703703703704 5 0  9.629629629629633 5 0  9.222222222222221 5 0  8.814814814814817 5 0  8.407407407407408 5 0  7.5789473684193 5 0  7.157894736838599 5 0  6.73684210526082 5 0  6.315789473684795 5 0  5.894736842108769 5 0  5.473684210532742 5 0  5.052631578956715 5 0  4.631578947380689 5 0  4.210526315804662 5 0  3.789473684226299 5 0  3.368421052645599 5 0  2.947368421064898 5 0  2.526315789484198 5 0  2.105263157903499 5 0  1.6842105263228 5 0  1.2631578947421 5 0  0.8421052631613994 5 0  0.4210526315806993 5 0  0 4.545454545454545 0  0 4.09090909090909 0  0 3.636363636363634 0  0 3.18181818181818 0  0 2.727272727272726 0  0 2.272727272727271 0  0 1.818181818181817 0  0 1.363636363636363 0  0 0.9090909090909092 0  0 0.454545454545455 0  0 -0.4545454545450807 0  0 -0.9090909090895867 0  0 -1.363636363633713 0  0 -1.818181818177841 0  0 -2.272727272723127 0  0 -2.727272727269273 0  0 -3.181818181815419 0  0 -3.636363636361564 0  0 -4.090909090907709 0  0 -4.545454545453855 0  8 -4.499999999999999 0  8 -3.999999999999999 0  8 -3.499999999999999 0  8 -3 0  8.137254901963859 -2.5 0  8.274509803926303 -2.5 0  8.411764705886863 -2.5 0  8.549019607849138 -2.5 0  8.686274509809513 -2.5 0  8.82352941176989 -2.5 0  8.960784313730265 -2.5 0  9.098039215690642 -2.5 0  9.235294117651017 -2.5 0  9.372549019611395 -2.5 0  9.50980392157177 -2.5 0  9.647058823532147 -2.5 0  9.784313725492522 -2.5 0  9.921568627452897 -2.5 0  10.05882352941327 -2.5 0  10.19607843137365 -2.5 0  10.33333333333402 -2.5 0  10.4705882352944 -2.5 0  10.60784313725478 -2.5 0  10.74509803921515 -2.5 0  10.88235294117553 -2.5 0  11.0196078431359 -2.5 0  11.15686274509628 -2.5 0  11.29411764705665 -2.5 0  11.43137254901703 -2.5 0  11.56862745097915 -2.5 0  11.70588235294301 -2.5 0  11.84313725490686 -2.5 0  11.98039215687072 -2.5 0  12.11764705883209 -2.5 0  12.25490196079247 -2.5 0  12.39215686275285 -2.5 0  12.52941176471322 -2.5 0  12.6666666666736 -2.5 0  12.80392156863397 -2.5 0  12.94117647059435 -2.5 0  13.07843137255473 -2.5 0  13.2156862745151 -2.5 0  13.35294117647548 -2.5 0  13.49019607843586 -2.5 0  13.62745098039623 -2.5 0  13.76470588235661 -2.5 0  13.90196078431699 -2.5 0  14.03921568627736 -2.5 0  14.17647058823774 -2.5 0  14.31372549019812 -2.5 0  14.45098039215849 -2.5 0  14.58823529411887 -2.5 0  14.72549019607925 -2.5 0  14.86274509803962 -2.5 0  15.20270270270254 -2.5 0  15.40540540540509 -2.5 0  15.60810810810763 -2.5 0  15.81081081081017 -2.5 0  16.01351351351227 -2.5 0  16.21621621621265 -2.5 0  16.41891891891279 -2.5 0  16.62162162161294 -2.5 0  16.82432432431308 -2.5 0  17.02702702701322 -2.5 0  17.22972972971337 -2.5 0  17.43243243241351 -2.5 0  17.63513513511365 -2.5 0  17.83783783781379 -2.5 0  18.04054054051394 -2.5 0  18.24324324321408 -2.5 0  18.44594594591422 -2.5 0  18.64864864861436 -2.5 0  18.85135135131451 -2.5 0  19.05405405401465 -2.5 0  19.25675675671479 -2.5 0  19.45945945941494 -2.5 0  19.66216216211508 -2.5 0  19.86486486481522 -2.5 0  20.06756756751536 -2.5 0  20.27027027021551 -2.5 0  20.47297297291565 -2.5 0  20.6756756756158 -2.5 0  20.87837837831594 -2.5 0  21.08108108101608 -2.5 0  21.28378378371622 -2.5 0  21.48648648641637 -2.5 0  21.68918918911651 -2.5 0  21.89189189181666 -2.5 0  22.0945945945168 -2.5 0  22.29729729721694 -2.5 0  22.49999999991778 -2.5 0  22.70270270262203 -2.5 0  22.90540540532697 -2.5 0  23.10810810803191 -2.5 0  23.31081081073686 -2.5 0  23.5135135134418 -2.5 0  23.71621621614674 -2.5 0  23.91891891885169 -2.5 0  24.12162162155663 -2.5 0  24.32432432426158 -2.5 0  24.52702702696652 -2.5 0  24.72972972967146 -2.5 0  24.93243243237641 -2.5 0  25.13513513508135 -2.5 0  25.3378378377863 -2.5 0  25.54054054049124 -2.5 0  25.74324324319618 -2.5 0  25.94594594590112 -2.5 0  26.14864864860607 -2.5 0  26.35135135131101 -2.5 0  26.55405405401596 -2.5 0  26.7567567567209 -2.5 0  26.95945945942584 -2.5 0  27.16216216213079 -2.5 0  27.36486486483573 -2.5 0  27.56756756754068 -2.5 0  27.77027027024562 -2.5 0  27.97297297295056 -2.5 0  28.1756756756555 -2.5 0  28.37837837836045 -2.5 0  28.5810810810654 -2.5 0  28.78378378377034 -2.5 0  28.98648648647528 -2.5 0  29.18918918918023 -2.5 0  29.39189189188517 -2.5 0  29.59459459459011 -2.5 0  29.79729729729506 -2.5 0  30 -3.000000000000001 0  30 -3.500000000000001 0  30 -4.000000000000001 0  30 -4.5 0  8 4.499999999999999 0  8 3.999999999999999 0  8 3.499999999999999 0  8 3 0  8.137254901963859 2.5 0  8.274509803926303 2.5 0  8.411764705886863 2.5 0  8.549019607849138 2.5 0  8.686274509809513 2.5 0  8.82352941176989 2.5 0  8.960784313730265 2.5 0  9.098039215690642 2.5 0  9.235294117651017 2.5 0  9.372549019611395 2.5 0  9.50980392157177 2.5 0  9.647058823532147 2.5 0  9.784313725492522 2.5 0  9.921568627452897 2.5 0  10.05882352941327 2.5 0  10.19607843137365 2.5 0  10.33333333333402 2.5 0  10.4705882352944 2.5 0  10.60784313725478 2.5 0  10.74509803921515 2.5 0  10.88235294117553 2.5 0  11.0196078431359 2.5 0  11.15686274509628 2.5 0  11.29411764705665 2.5 0  11.43137254901703 2.5 0  11.56862745097915 2.5 0  11.70588235294301 2.5 0  11.84313725490686 2.5 0  11.98039215687072 2.5 0  12.11764705883209 2.5 0  12.25490196079247 2.5 0  1
[...]
<PointData  Vectors="f_17"> 
<DataArray  type="Float64"  Name="f_17"  NumberOfComponents="3" format="ascii">1.0000001330259736e+00 0.0000000000000000e+00 0.0000000000000000e+00  1.0388355300384375e+00 0.0000000000000000e+00 0.0000000000000000e+00  1.0593605630876053e+00 0.0000000000000000e+00 0.0000000000000000e+00  1.0840551878247797e+00 0.0000000000000000e+00 0.0000000000000000e+00  1.0806211555823839e+00 0.0000000000000000e+00 0.0000000000000000e+00  1.0550063582966598e+00 0.0000000000000000e+00 0.0000000000000000e+00  1.0420541341932907e+00 0.0000000000000000e+00 0.0000000000000000e+00  1.0000001330259736e+00 0.0000000000000000e+00 0.0000000000000000e+00  1.0182338012864058e+00 -4.9324882249405164e-02 0.0000000000000000e+00  1.0033177041772017e+00 6.4838481714906263e-02 0.0000000000000000e+00  1.0621672818291892e+00 7.8088901111365724e-02 0.0000000000000000e+00  1.0676162777347935e+00 8.8863010088516922e-02 0.0000000000000000e+00  1.1296665460698867e+00 2.4659250256572403e-02 0.0000000000000000e+00  1.0245432454888601e+00 5.2301607729613432e-02 0.0000000000000000e+00  0.0000000000000000e+00 0.0000000000000000e+00 0.0000000000000000e+00  0.0000000000000000e+00 0.0000000000000000e+00 0.0000000000000000e+00  1.0000001330259736e+00 0.0000000000000000e+00 0.0000000000000000e+00  9.9929780290926706e-01 0.0000000000000000e+00 0.0000000000000000e+00  9.9873318981491288e-01 0.0000000000000000e+00 0.0000000000000000e+00  1.0007481371502149e+00 0.0000000000000000e+00 0.0000000000000000e+00  1.0004845035031378e+00 0.0000000000000000e+00 0.0000000000000000e+00  1.0013268203627963e+00 0.0000000000000000e+00 0.0000000000000000e+00  1.0014755646947275e+00 0.0000000000000000e+00 0.0000000000000000e+00  1.0015701700125834e+00 0.0000000000000000e+00 0.0000000000000000e+00  1.0021814941965410e+00 0.0000000000000000e+00 0.0000000000000000e+00  1.0031829535096353e+00 0.0000000000000000e+00 0.0000000000000000e+00  1.0041150754492449e+00 0.0000000000000000e+00 0.0000000000000000e+00  1.0053938444014907e+00 0.0000000000000000e+00 0.0000000000000000e+00  1.0074711071333324e+00 0.0000000000000000e+00 0.0000000000000000e+00  1.0096551751281466e+00 0.0000000000000000e+00 0.0000000000000000e+00  1.0134189413303534e+00 0.0000000000000000e+00 0.0000000000000000e+00  1.0149686521756474e+00 0.0000000000000000e+00 0.0000000000000000e+00  1.0193169278249690e+00 0.0000000000000000e+00 0.0000000000000000e+00  1.0258420825978660e+00 0.0000000000000000e+00 0.0000000000000000e+00  1.0310618165188956e+00 0.0000000000000000e+00 0.0000000000000000e+00  1.0467575707455179e+00 0.0000000000000000e+00 0.0000000000000000e+00  1.0552469828293354e+00 0.0000000000000000e+00 0.0000000000000000e+00  1.0633443930084947e+00 0.0000000000000000e+00 0.0000000000000000e+00  1.0721007129248927e+00 0.0000000000000000e+00 0.0000000000000000e+00  1.0795516879598945e+00 0.0000000000000000e+00 0.0000000000000000e+00  1.0864343515349595e+00 0.0000000000000000e+00 0.0000000000000000e+00  1.0928712486821499e+00 0.0000000000000000e+00 0.0000000000000000e+00  1.0965219796062124e+00 0.0000000000000000e+00 0.0000000000000000e+00  1.0989161708338342e+00 0.0000000000000000e+00 0.0000000000000000e+00  1.0989749484499058e+00 0.0000000000000000e+00 0.0000000000000000e+00  1.0972793317231107e+00 0.0000000000000000e+00 0.0000000000000000e+00  1.0924713279842730e+00 0.0000000000000000e+00 0.0000000000000000e+00  1.0869338659666239e+00 0.0000000000000000e+00 0.0000000000000000e+00  1.0798373820131464e+00 0.0000000000000000e+00 0.0000000000000000e+00  1.0720620631832543e+00 0.0000000000000000e+00 0.0000000000000000e+00  1.0649152437032288e+00 0.0000000000000000e+00 0.0000000000000000e+00  1.0587242703494038e+00 0.0000000000000000e+00 0.0000000000000000e+00  1.0544511278780733e+00 0.0000000000000000e+00 0.0000000000000000e+00  1.0520561710473200e+00 0.0000000000000000e+00 0.0000000000000000e+00  1.0516577980010797e+00 0.0000000000000000e+00 0.0000000000000000e+00  1.0542427330732977e+00 0.0000000000000000e+00 0.0000000000000000e+00  1.0582484491779058e+00 0.0000000000000000e+00 0.0000000000000000e+00  1.0611069374520412e+00 0.0000000000000000e+00 0.0000000000000000e+00  1.0637139888204838e+00 0.0000000000000000e+00 0.0000000000000000e+00  1.0643301205435787e+00 0.0000000000000000e+00 0.0000000000000000e+00  1.0625893831620994e+00 0.0000000000000000e+00 0.0000000000000000e+00  1.0592562178323988e+00 0.0000000000000000e+00 0.0000000000000000e+00  1.0540652920423415e+00 0.0000000000000000e+00 0.0000000000000000e+00  1.0486151904572851e+00 0.0000000000000000e+00 0.0000000000000000e+00  1.0441466603710952e+00 0.0000000000000000e+00 0.0000000000000000e+00  1.0405848701113849e+00 0.0000000000000000e+00 0.0000000000000000e+00  1.0390799454304394e+00 0.0000000000000000e+00 0.0000000000000000e+00  1.0415582421339249e+00 0.0000000000000000e+00 0.0000000000000000e+00  1.0450486170334472e+00 0.0000000000000000e+00 0.0000000000000000e+00  1.0496787669315411e+00 0.0000000000000000e+00 0.0000000000000000e+00  1.0556933327460152e+00 0.0000000000000000e+00 0.0000000000000000e+00  1.0599445638070457e+00 0.0000000000000000e+00 0.0000000000000000e+00  1.0622294085438830e+00 0.0000000000000000e+00 0.0000000000000000e+00  1.0636152052221990e+00 0.0000000000000000e+00 0.0000000000000000e+00  1.0618632283323244e+00 0.0000000000000000e+00 0.0000000000000000e+00  1.0582210149783740e+00 0.0000000000000000e+00 0.0000000000000000e+00  1.0546113465178646e+00 0.0000000000000000e+00 0.0000000000000000e+00  1.0505984275207430e+00 0.0000000000000000e+00 0.0000000000000000e+00  1.0478358167729249e+00 0.0000000000000000e+00 0.0000000000000000e+00  1.0475742927325340e+00 0.0000000000000000e+00 0.0000000000000000e+00  1.0484140232981582e+00 0.0000000000000000e+00 0.0000000000000000e+00  1.0507151937403501e+00 0.0000000000000000e+00 0.0000000000000000e+00  1.0566893035501077e+00 0.0000000000000000e+00 0.0000000000000000e+00  1.0607155897224947e+00 0.0000000000000000e+00 0.0000000000000000e+00  1.0623868830619871e+00 0.0000000000000000e+00 0.0000000000000000e+00  1.0635174298624759e+00 0.0000000000000000e+00 0.0000000000000000e+00  1.0642862199148329e+00 0.0000000000000000e+00 0.0000000000000000e+00  1.0621855816181169e+00 0.0000000000000000e+00 0.0000000000000000e+00  1.0556667816083996e+00 0.0000000000000000e+00 0.0000000000000000e+00  1.0519189816448955e+00 0.0000000000000000e+00 0.0000000000000000e+00  1.0496316137141506e+00 0.0000000000000000e+00 0.0000000000000000e+00  1.0500926865883509e+00 0.0000000000000000e+00 0.0000000000000000e+00  1.0526512694894581e+00 0.0000000000000000e+00 0.0000000000000000e+00  1.0560360937780149e+00 0.0000000000000000e+00 0.0000000000000000e+00  1.0602034813758641e+00 0.0000000000000000e+00 0.0000000000000000e+00  1.0640927369454798e+00 0.0000000000000000e+00 0.0000000000000000e+00  1.0668963061761667e+00 0.0000000000000000e+00 0.0000000000000000e+00  1.0673668005391426e+00 0.0000000000000000e+00 0.0000000000000000e+00  1.0665904672045505e+00 0.0000000000000000e+00 0.0000000000000000e+00  1.0641039752455785e+00 0.0000000000000000e+00 0.0000000000000000e+00  1.0607616610675981e+00 0.0000000000000000e+00 0.0000000000000000e+00  1.0582224449375395e+00 0.0000000000000000e+00 0.0000000000000000e+00  1.0568207075371210e+00 0.0000000000000000e+00 0.0000000000000000e+00  1.0578167021091092e+00 0.0000000000000000e+00 0.0000000000000000e+00  1.0600942232280732e+00 0.0000000000000000e+00 0.0000000000000000e+00  1.0646998238216758e+00 0.0000000000000000e+00 0.0000000000000000e+00  1.0700565714603179e+00 0.0000000000000000e+00 0.0000000000000000e+00  1.0761240712338771e+00 0.0000000000000000e+00 0.0000000000000000e+00  1.0805377920709520e+00 0.0000000000000000e+00 0.0000000000000000e+00  1.0838580593155529e+00 0.0000000000000000e+00 0.0000000000000000e+00  1.0843216018748729e+00 0.0000000000000000e+00 0.0000000000000000e+00  1.0852469098935460e+00 1.4287724953034181e-03 0.0000000000000000e+00  1.0881856458478223e+00 3.7580081674999486e-03 0.0000000000000000e+00  1.0936085871576244e+00 8.4162567602459604e-03 0.0000000000000000e+00  1.1015588310783344e+00 1.8005082905043292e-02 0.0000000000000000e+00  1.1148563464873096e+00 3.7208555076827937e-02 0.0000000000000000e+00  1.1235977709321787e+00 6.7790076823664600e-02 0.0000000000000000e+00  1.1105493274273319e+00 1.1660442255014078e-01 0.0000000000000000e+00  1.0603102659095338e+00 1.7105723934626052e-01 0.0000000000000000e+00  9.7174586824992759e-01 2.2493104904626965e-01 0.0000000000000000e+00  8.6755428619161334e-01 2.5609930249001828e-01 0.0000000000000000e+00  7.8114913902982608e-01 2.7371225543958577e-01 0.0000000000000000e+00  7.3673097885632177e-01 2.7847226947700865e-01 0.0000000000000000e+00  7.4507149701578301e-01 2.8025022575873543e-01 0.0000000000000000e+00  7.9703853881461428e-01 2.8033520845302007e-01 0.0000000000000000e+00  8.7670582543502207e-01 2.6215141851377577e-01 0.0000000000000000e+00  9.5461899195427968e-01 2.2093062296443433e-01 0.0000000000000000e+00  1.0082294964830956e+00 1.6638222294855373e-01 0.0000000000000000e+00  1.0367466017793994e+00 1.1061634388348894e-01 0.0000000000000000e+00  1.0541976161778810e+00 7.2787164146720845e-02 0.0000000000000000e+00  1.0679427373887096e+00 4.6858523884754581e-02 0.0000000000000000e+00  1.0756194846721931e+00 2.9976307068743206e-02 0.0000000000000000e+00  1.0797178874922913e+00 1.7740941342303494e-02 0.0000000000000000e+00  1.0808067021641552e+00 8.1224847106483242e-03 0.0000000000000000e+00  1.0734186958583793e+00 0.0000000000000000e+00 0.0000000000000000e+00  1.0684790120344838e+00 0.0000000000000000e+00 0.0000000000000000e+00  1.0659375011655532e+00 0.0000000000000000e+00 0.0000000000000000e+00  1.0660682844869609e+00 0.0000000000000000e+00 0.0000000000000000e+00  1.0670254387237361e+00 0.0000000000000000e+00 0.0000000000000000e+00  1.0689207005304748e+00 0.0000000000000000e+00 0.0000000000000000e+00  1.0705976099890062e+00 0.0000000000000000e+00 0.0000000000000000e+00  1.0711673591187192e+00 0.0000000000000000e+00 0.0000000000000000e+00  1.0693122161221413e+00 0.0000000000000000e+00 0.0000000000000000e+00  1.0661671658925209e+00 0.0000000000000000e+00 0.0000000000000000e+00  1.0617591756867304e+00 0.0000000000000000e+00 0.0000000000000000e+00  1.0570034767694498e+00 0.0000000000000000e+00 0.0000000000000000e+00  1.0530826925069934e+00 0.0000000000000000e+00 0.0000000000000000e+00  1.0514916128379650e+00 0.0000000000000000e+00 0.0000000000000000e+00  1.0511561822649163e+00 0.0000000000000000e+00 0.0000000000000000e+00  1.0537153205920484e+00 0.0000000000000000e+00 0.0000000000000000e+00  1.0564177160621016e+00 0.0000000000000000e+00 0.0000000000000000e+00  1.0601176659295886e+00 0.0000000000000000e+00 0.0000000000000000e+00  1.0629677591703304e+00 0.0000000000000000e+00 0.0000000000000000e+00  1.0649986750242397e+00 0.0000000000000000e+00 0.0000000000000000e+00  1.0648457974234220e+00 0.0000000000000000e+00 0.0000000000000000e+00  1.0623347335268609e+00 0.0000000000000000e+00 0.0000000000000000e+00  1.0590955134795115e+00 0.0000000000000000e+00 0.0000000000000000e+00  1.0508242569587125e+00 0.0000000000000000e+00 0.0000000000000000e+00  1.0484963522533002e+00 0.0000000000000000e+00 0.0000000000000000e+00  1.0469735196826628e+00 0.0000000000000000e+00 0.0000000000000000e+00  1.0489023758374898e+00 0.0000000000000000e+00 0.0000000000000000e+00  1.0533814028800805e+00 0.0000000000000000e+00 0.0000000000000000e+00  1.0575042913043577e+00 0.0000000000000000e+00 0.0000000000000000e+00  1.0597638677785506e+00 0.0000000000000000e+00 0.0000000000000000e+00  1.0631497339054032e+00 0.0000000000000000e+00 0.0000000000000000e+00  1.0644856823653792e+00 0.0000000000000000e+00 0.0000000000000000e+00  1.0627975787190143e+00 0.0000000000000000e+00 0.0000000000000000e+00  1.0597149842819646e+00 0.0000000000000000e+00 0.0000000000000000e+00  1.0552851185167378e+00 0.0000000000000000e+00 0.0000000000000000e+00  1.0498413665306534e+00 0.0000000000000000e+00 0.0000000000000000e+00  1.0459961366726429e+00 0.0000000000000000e+00 0.0000000000000000e+00  1.0436929990172468e+00 0.0000000000000000e+00 0.0000000000000000e+00  1.0425781554887830e+00 0.0000000000000000e+00 0.0000000000000000e+00  1.0449361542732376e+00 0.0000000000000000e+00 0.0000000000000000e+00  1.0489163482475798e+00 0.0000000000000000e+00 0.0000000000000000e+00  1.0529448032478574e+00 0.0000000000000000e+00 0.0000000000000000e+00  1.0576855589264704e+00 0.0000000000000000e+00 0.0000000000000000e+00  1.0610247748538184e+00 0.0000000000000000e+00 0.0000000000000000e+00  1.0612532624574551e+00 0.0000000000000000e+00 0.0000000000000000e+00  1.0603912739958550e+00 0.0000000000000000e+00 0.0000000000000000e+00  1.0572488722710291e+00 0.0000000000000000e+00 0.0000000000000000e+00  1.0517212682298032e+00 0.0000000000000000e+00 0.0000000000000000e+00  1.0463561789197513e+00 0.0000000000000000e+00 0.0000000000000000e+00  1.0417895448923868e+00 0.0000000000000000e+00 0.0000000000000000e+00  1.0387019677935250e+00 0.0000000000000000e+00 0.0000000000000000e+00  1.0383843188497526e+00 0.0000000000000000e+00 0.0000000000000000e+00  1.0406624659352393e+00 0.0000000000000000e+00 0.0000000000000000e+00  1.0448103718129296e+00 0.0000000000000000e+00 0.0000000000000000e+00  1.0512818367506607e+00 0.0000000000000000e+00 0.0000000000000000e+00  1.0571530263645705e+00 0.0000000000000000e+00 0.0000000000000000e+00  1.0631284726240204e+00 0.0000000000000000e+00 0.0000000000000000e+00  1.0687893163214162e+00 0.0000000000000000e+00 0.0000000000000000e+00  1.0727661509697499e+00 0.0000000000000000e+00 0.0000000000000000e+00  1.0746887363746160e+00 0.0000000000000000e+00 0.0000000000000000e+00  1.0749716744352202e+00 0.0000000000000000e+00 0.0000000000000000e+00  1.0750956876002975e+00 0.0000000000000000e+00 0.0000000000000000e+00  1.0760717660076549e+00 0.0000000000000000e+00 0.0000000000000000e+00  1.0768311097579717e+00 0.0000000000000000e+00 0.0000000000000000e+00  1.0782208910956028e+00 0.0000000000000000e+00 0.0000000000000000e+00  1.0816349368586291e+00 0.0000000000000000e+00 0.0000000000000000e+00  1.0835525893015554e+00 0.0000000000000000e+00 0.0000000000000000e+00  1.0858665232547111e+00 0.0000000000000000e+00 0.0000000000000000e+00  1.0867565368256227e+00 0.0000000000000000e+00 0.0000000000000000e+00  1.0854563621270505e+00 0.0000000000000000e+00 0.0000000000000000e+00  1.0825413943422473e+00 0.0000000000000000e+00 0.0000000000000000e+00  1.0782421160393738e+00 0.0000000000000000e+00 0.0000000000000000e+00  1.0724879871844097e+00 0.0000000000000000e+00 0.0000000000000000e+00  1.0649544736714025e+00 0.0000000000000000e+00 0.0000000000000000e+00  1.0578213955997464e+00 0.0000000000000000e+00 0.0000000000000000e+00  1.0498309860171922e+00 0.0000000000000000e+00 0.0000000000000000e+00  1.0344455469894056e+00 0.0000000000000000e+00 0.0000000000000000e+00  1.0277918823872285e+00 0.0000000000000000e+00 0.0000000000000000e+00  1.0225095994226570e+00 0.0000000000000000e+00 0.0000000000000000e+00  1.0177647602009328e+00 0.0000000000000000e+00 0.0000000000000000e+00  1.0138869183479930e+00 0.0000000000000000e+00 0.0000000000000000e+00  1.0108177068772524e+00 0.0000000000000000e+00 0.0000000000000000e+00  1.0084610474023068e+00 0.0000000000000000e+00 0.0000000000000000e+00  1.0061639891484240e+00 0.0000000000000000e+00 0.0000000000000000e+00  1.0045283852489753e+00 0.0000000000000000e+00 0.0000000000000000e+00  1.0033461309406915e+00 0.0000000000000000e+00 0.0000000000000000e+00  1.0019950855238062e+00 0.0000000000000000e+00 0.0000000000000000e+00  1.0016836729272056e+00 0.0000000000000000e+00 0.0000000000000000e+00  1.0004809695349841e+00 0.0000000000000000e+00 0.0000000000000000e+00  1.0003458758146526e+00 0.0000000000000000e+00 0.0000000000000000e+00  9.9986779922870783e-01 0.0000000000000000e+00 0.0000000000000000e+00  1.0005006610264491e+00 0.0000000000000000e+00 0.0000000000000000e+00  1.0002442390223116e+00 0.0000000000000000e+00 0.0000000000000000e+00  9.9979512212816246e-01 0.0000000000000000e+00 0.0000000000000000e+00  1.0000001330259736e+00 0.0000000000000000e+00 0.0000000000000000e+00  1.0000001330259736e+00 0.0000000000000000e+00 0.0000000000000000e+00  1.0000001330259736e+00 0.0000000000000000e+00 0.0000000000000000e+00  1.0000001330259736e+00 0.0000000000000000e+00 0.0000000000000000e+00  1.0000001330259736e+00 0.0000000000000000e+00 0.0000000000000000e+00  1.0000001330259736e+00 0.0000000000000000e+00 0.0000000000000000e+00  1.0000001330259736e+00 0.0000000000000000e+00 0.0000000000000000e+00  1.0000001330259736e+00 0.0000000000000000e+00 0.0000000000000000e+00  1.0000001330259736e+00 0.0000000000000000e+00 0.0000000000000000e+00  1.0000001330259736e+00 0.0000000000000000e+00 0.0000000000000000e+00  1.0000001330259736e+00 0.0000000000000000e+00 0.0000000000000000e+00  1.0000001330259736e+00 0.0000000000000000e+00 0.0000000000000000e+00  1.0000001330259736e+00 0.0000000000000000e+00 0.0000000000000000e+00  1.0000001330259736e+00 0.0000000000000000e+00 0.0000000000000000e+00  1.0000001330259736e+00 0.0000000000000000e+00 0.0000000000000000e+00  1.0000001330259736e+00 0.0000000000000000e+00 0.0000000000000000e+00  1.0000001330259736e+00 0.0000000000000000e+00 0.0000000000000000e+00  1.0000001330259736e+00 0.0000000000000000e+00 0.0000000000000000e+00  1.0000001330259736e+00 0.0000000000000000e+00 0.0000000000000000e+00  1.0000001330259736e+00 0.0000000000000000e+00 0.0000000000000000e+00  1.0381800049713810e+00 -9.1952218255442874e-03 0.0000000000000000e+00  1.0350589152369649e+00 -1.8546647869946205e-02 0.0000000000000000e+00  1.0326600602393168e+00 -2.8573969140027404e-02 0.0000000000000000e+00  1.0267751105728267e+00 -3.8915368583156563e-02 0.0000000000000000e+00  1.0207234123925550e+00 -5.2954756628694033e-02 0.0000000000000000e+00  1.0249390927208413e+00 -5.6260733883471838e-02 0.0000000000000000e+00  1.0287390578517988e+00 -5.9648322887848999e-02 0.0000000000000000e+00  1.0335226751261239e+00 -6.2739204419902092e-02 0.0000000000000000e+00  1.0385321211541743e+00 -6.5695958325412251e-02 0.0000000000000000e+00  1.0441213572218506e+00 -6.8243472257499563e-02 0.0000000000000000e+00  1.0502417176974961e+00 -7.0461523730860301e-02 0.0000000000000000e+00  1.0567233338118260e+00 -7.2049772060836834e-02 0.0000000000000000e+00  1.0636605161087065e+00 -7.3116736367512286e-02 0.0000000000000000e+00  1.0706163831169806e+00 -7.3349122678616485e-02 0.0000000000000000e+00  1.0778098958671734e+00 -7.3011448816494129e-02 0.0000000000000000e+00  1.0849063459420329e+00 -7.2016895125750144e-02 0.0000000000000000e+00  1.0920026017836562e+00 -7.0056370321072176e-02 0.0000000000000000e+00  1.0986217388584283e+00 -6.7310253497345554e-02 0.0000000000000000e+00  1.1048310760164857e+00 -6.4091876728870567e-02 0.0000000000000000e+00  1.1105154917142672e+00 -6.0301644564030518e-02 0.0000000000000000e+00  1.1155342796393739e+00 -5.6107974596074646e-02 0.0000000000000000e+00  1.1198597869227913e+00 -5.1611347170366605e-02 0.0000000000000000e+00  1.1236220278290576e+00 -4.7077970673730825e-02 0.0000000000000000e+00  1.1267647526880440e+00 -4.2373229338846900e-02 0.0000000000000000e+00  1.1294153514787613e+00 -3.7997716963467557e-02 0.0000000000000000e+00  1.1316449088679248e+00 -3.3482870765281274e-02 0.0000000000000000e+00  1.1335623302971352e+00 -2.9192157162066076e-02 0.0000000000000000e+00  1.1353895998114099e+00 -2.5163877236331317e-02 0.0000000000000000e+00  1.1371162989334864e+00 -2.1247979408591050e-02 0.0000000000000000e+00  1.1388285817888739e+00 -1.7339126580063074e-02 0.0000000000000000e+00  1.1405824449022857e+00 -1.3242718680067942e-02 0.0000000000000000e+00  1.1424053519050861e+00 -8.9312781821550176e-03 0.0000000000000000e+00  1.1441495878140022e+00 -4.1933797612284706e-03 0.0000000000000000e+00  1.1458276288447518e+00 1.0673008425072961e-03 0.0000000000000000e+00  1.1471909725333409e+00 6.9021188808753220e-03 0.0000000000000000e+00  1.1480965654802913e+00 1.3390939905860006e-02 0.