<?xml version="1.0"?>
<VTKFile type="UnstructuredGrid"  version="0.1"  >
<UnstructuredGrid>
<Piece  NumberOfPoints="10199" NumberOfCells="20110">
<Points>
<DataArray  type="Float64"  NumberOfComponents="3"  format="ascii">0 -5 0  8 -5 0  30 -5 0  40 -5 0  40 5 0  30 5 0  8 5 0  0 5 0  8 -2.5 0  15 -2.5 0  30 -2.5 0  30 2.5 0  15 2.5 0  8 2.5 0  10 0.5 0  10 -0.5 0  0 0 0  0.4210526315780956 -5 0  0.8421052631563433 -5 0  1.263157894734281 -5 0  1.684210526311999 -5 0  2.105263157889717 -5 0  2.526315789467435 -5 0  2.947368421045153 -5 0  3.368421052622872 -5 0  3.78947368420059 -5 0  4.210526315779479 -5 0  4.631578947359537 -5 0  5.052631578939595 -5 0  5.473684210519653 -5 0  5.89473684209971 -5 0  6.315789473679768 -5 0  6.736842105259826 -5 0  7.157894736839884 -5 0  7.578947368419942 -5 0  8.407407407405314 -5 0  8.814814814810628 -5 0  9.222222222215942 -5 0  9.629629629621256 -5 0  10.03703703702657 -5 0  10.44444444443188 -5 0  10.8518518518372 -5 0  11.25925925924251 -5 0  11.66666666664783 -5 0  12.07407407405314 -5 0  12.48148148145846 -5 0  12.88888888886377 -5 0  13.29629629626908 -5 0  13.7037037036744 -5 0  14.11111111107971 -5 0  14.51851851848502 -5 0  14.92592592589034 -5 0  15.33333333329565 -5 0  15.74074074070096 -5 0  16.14814814810754 -5 0  16.55555555551614 -5 0  16.96296296292474 -5 0  17.37037037033335 -5 0  17.77777777774195 -5 0  18.18518518515056 -5 0  18.59259259255916 -5 0  18.99999999996776 -5 0  19.40740740737636 -5 0  19.81481481478497 -5 0  20.22222222219357 -5 0  20.62962962960217 -5 0  21.03703703701077 -5 0  21.44444444441937 -5 0  21.85185185182797 -5 0  22.25925925923657 -5 0  22.66666666664518 -5 0  23.07407407405378 -5 0  23.48148148146238 -5 0  23.88888888887098 -5 0  24.29629629627958 -5 0  24.70370370368818 -5 0  25.11111111109678 -5 0  25.51851851850539 -5 0  25.92592592591399 -5 0  26.33333333332259 -5 0  26.74074074073119 -5 0  27.14814814813979 -5 0  27.55555555554839 -5 0  27.96296296295699 -5 0  28.3703703703656 -5 0  28.7777777777742 -5 0  29.1851851851828 -5 0  29.5925925925914 -5 0  30.41666666667852 -5 0  30.83333333335704 -5 0  31.25000000003556 -5 0  31.66666666671408 -5 0  32.08333333338936 -5 0  32.50000000005308 -5 0  32.9166666667168 -5 0  33.33333333338052 -5 0  33.75000000004424 -5 0  34.16666666670795 -5 0  34.58333333337167 -5 0  35.00000000003539 -5 0  35.41666666669911 -5 0  35.83333333336282 -5 0  36.25000000002654 -5 0  36.66666666669026 -5 0  37.08333333335398 -5 0  37.50000000001769 -5 0  37.91666666668141 -5 0  38.33333333334513 -5 0  38.75000000000885 -5 0  39.16666666667257 -5 0  39.58333333333628 -5 0  40 -4.583333333332821 0  40 -4.166666666665642 0  40 -3.74999999999855 0  40 -3.333333333333135 0  40 -2.916666666667806 0  40 -2.500000000002478 0  40 -2.083333333337148 0  40 -1.666666666671818 0  40 -1.250000000006488 0  40 -0.8333333333405228 0  40 -0.4166666666733416 0  40 -6.163070054299169e-12 0  40 0.4166666666610173 0  40 0.8333333333281976 0  40 1.249999999995378 0  40 1.666666666662558 0  40 2.083333333329739 0  40 2.499999999996919 0  40 2.916666666664099 0  40 3.33333333333128 0  40 3.74999999999846 0  40 4.166666666665641 0  40 4.583333333332821 0  39.58333333333628 5 0  39.16666666667256 5 0  38.75000000000885 5 0  38.33333333334513 5 0  37.91666666668141 5 0  37.50000000001769 5 0  37.08333333335398 5 0  36.66666666669025 5 0  36.25000000002654 5 0  35.83333333336282 5 0  35.41666666669911 5 0  35.00000000003539 5 0  34.58333333337167 5 0  34.16666666670795 5 0  33.75000000004424 5 0  33.33333333338052 5 0  32.9166666667168 5 0  32.50000000005308 5 0  32.08333333338936 5 0  31.66666666671408 5 0  31.25000000003556 5 0  30.83333333335704 5 0  30.41666666667852 5 0  29.59259259259259 5 0  29.18518518518519 5 0  28.77777777777778 5 0  28.37037037037037 5 0  27.96296296296296 5 0  27.55555555555556 5 0  27.14814814814815 5 0  26.74074074074074 5 0  26.33333333333333 5 0  25.92592592592593 5 0  25.51851851851852 5 0  25.11111111111111 5 0  24.7037037037037 5 0  24.2962962962963 5 0  23.88888888888889 5 0  23.48148148148148 5 0  23.07407407407408 5 0  22.66666666666667 5 0  22.25925925925926 5 0  21.85185185185185 5 0  21.44444444444445 5 0  21.03703703703704 5 0  20.62962962962963 5 0  20.22222222222222 5 0  19.81481481481482 5 0  19.40740740740741 5 0  19 5 0  18.5925925925926 5 0  18.18518518518519 5 0  17.77777777777778 5 0  17.37037037037037 5 0  16.96296296296296 5 0  16.55555555555556 5 0  16.14814814814815 5 0  15.74074074074074 5 0  15.33333333333333 5 0  14.92592592592593 5 0  14.51851851851852 5 0  14.11111111111111 5 0  13.70370370370371 5 0  13.2962962962963 5 0  12.88888888888889 5 0  12.48148148148148 5 0  12.07407407407408 5 0  11.66666666666667 5 0  11.25925925925926 5 0  10.85185185185185 5 0  10.44444444444445 5 0  10.03703703703704 5 0  9.629629629629633 5 0  9.222222222222221 5 0  8.814814814814817 5 0  8.407407407407408 5 0  7.5789473684193 5 0  7.157894736838599 5 0  6.73684210526082 5 0  6.315789473684795 5 0  5.894736842108769 5 0  5.473684210532742 5 0  5.052631578956715 5 0  4.631578947380689 5 0  4.210526315804662 5 0  3.789473684226299 5 0  3.368421052645599 5 0  2.947368421064898 5 0  2.526315789484198 5 0  2.105263157903499 5 0  1.6842105263228 5 0  1.2631578947421 5 0  0.8421052631613994 5 0  0.4210526315806993 5 0  0 4.545454545454545 0  0 4.09090909090909 0  0 3.636363636363634 0  0 3.18181818181818 0  0 2.727272727272726 0  0 2.272727272727271 0  0 1.818181818181817 0  0 1.363636363636363 0  0 0.9090909090909092 0  0 0.454545454545455 0  0 -0.4545454545450807 0  0 -0.9090909090895867 0  0 -1.363636363633713 0  0 -1.818181818177841 0  0 -2.272727272723127 0  0 -2.727272727269273 0  0 -3.181818181815419 0  0 -3.636363636361564 0  0 -4.090909090907709 0  0 -4.545454545453855 0  8 -4.499999999999999 0  8 -3.999999999999999 0  8 -3.499999999999999 0  8 -3 0  8.137254901963859 -2.5 0  8.274509803926303 -2.5 0  8.411764705886863 -2.5 0  8.549019607849138 -2.5 0  8.686274509809513 -2.5 0  8.82352941176989 -2.5 0  8.960784313730265 -2.5 0  9.098039215690642 -2.5 0  9.235294117651017 -2.5 0  9.372549019611395 -2.5 0  9.50980392157177 -2.5 0  9.647058823532147 -2.5 0  9.784313725492522 -2.5 0  9.921568627452897 -2.5 0  10.05882352941327 -2.5 0  10.19607843137365 -2.5 0  10.33333333333402 -2.5 0  10.4705882352944 -2.5 0  10.60784313725478 -2.5 0  10.74509803921515 -2.5 0  10.88235294117553 -2.5 0  11.0196078431359 -2.5 0  11.15686274509628 -2.5 0  11.29411764705665 -2.5 0  11.43137254901703 -2.5 0  11.56862745097915 -2.5 0  11.70588235294301 -2.5 0  11.84313725490686 -2.5 0  11.98039215687072 -2.5 0  12.11764705883209 -2.5 0  12.25490196079247 -2.5 0  12.39215686275285 -2.5 0  12.52941176471322 -2.5 0  12.6666666666736 -2.5 0  12.80392156863397 -2.5 0  12.94117647059435 -2.5 0  13.07843137255473 -2.5 0  13.2156862745151 -2.5 0  13.35294117647548 -2.5 0  13.49019607843586 -2.5 0  13.62745098039623 -2.5 0  13.76470588235661 -2.5 0  13.90196078431699 -2.5 0  14.03921568627736 -2.5 0  14.17647058823774 -2.5 0  14.31372549019812 -2.5 0  14.45098039215849 -2.5 0  14.58823529411887 -2.5 0  14.72549019607925 -2.5 0  14.86274509803962 -2.5 0  15.20270270270254 -2.5 0  15.40540540540509 -2.5 0  15.60810810810763 -2.5 0  15.81081081081017 -2.5 0  16.01351351351227 -2.5 0  16.21621621621265 -2.5 0  16.41891891891279 -2.5 0  16.62162162161294 -2.5 0  16.82432432431308 -2.5 0  17.02702702701322 -2.5 0  17.22972972971337 -2.5 0  17.43243243241351 -2.5 0  17.63513513511365 -2.5 0  17.83783783781379 -2.5 0  18.04054054051394 -2.5 0  18.24324324321408 -2.5 0  18.44594594591422 -2.5 0  18.64864864861436 -2.5 0  18.85135135131451 -2.5 0  19.05405405401465 -2.5 0  19.25675675671479 -2.5 0  19.45945945941494 -2.5 0  19.66216216211508 -2.5 0  19.86486486481522 -2.5 0  20.06756756751536 -2.5 0  20.27027027021551 -2.5 0  20.47297297291565 -2.5 0  20.6756756756158 -2.5 0  20.87837837831594 -2.5 0  21.08108108101608 -2.5 0  21.28378378371622 -2.5 0  21.48648648641637 -2.5 0  21.68918918911651 -2.5 0  21.89189189181666 -2.5 0  22.0945945945168 -2.5 0  22.29729729721694 -2.5 0  22.49999999991778 -2.5 0  22.70270270262203 -2.5 0  22.90540540532697 -2.5 0  23.10810810803191 -2.5 0  23.31081081073686 -2.5 0  23.5135135134418 -2.5 0  23.71621621614674 -2.5 0  23.91891891885169 -2.5 0  24.12162162155663 -2.5 0  24.32432432426158 -2.5 0  24.52702702696652 -2.5 0  24.72972972967146 -2.5 0  24.93243243237641 -2.5 0  25.13513513508135 -2.5 0  25.3378378377863 -2.5 0  25.54054054049124 -2.5 0  25.74324324319618 -2.5 0  25.94594594590112 -2.5 0  26.14864864860607 -2.5 0  26.35135135131101 -2.5 0  26.55405405401596 -2.5 0  26.7567567567209 -2.5 0  26.95945945942584 -2.5 0  27.16216216213079 -2.5 0  27.36486486483573 -2.5 0  27.56756756754068 -2.5 0  27.77027027024562 -2.5 0  27.97297297295056 -2.5 0  28.1756756756555 -2.5 0  28.37837837836045 -2.5 0  28.5810810810654 -2.5 0  28.78378378377034 -2.5 0  28.98648648647528 -2.5 0  29.18918918918023 -2.5 0  29.39189189188517 -2.5 0  29.59459459459011 -2.5 0  29.79729729729506 -2.5 0  30 -3.000000000000001 0  30 -3.500000000000001 0  30 -4.000000000000001 0  30 -4.5 0  8 4.499999999999999 0  8 3.999999999999999 0  8 3.499999999999999 0  8 3 0  8.137254901963859 2.5 0  8.274509803926303 2.5 0  8.411764705886863 2.5 0  8.549019607849138 2.5 0  8.686274509809513 2.5 0  8.82352941176989 2.5 0  8.960784313730265 2.5 0  9.098039215690642 2.5 0  9.235294117651017 2.5 0  9.372549019611395 2.5 0  9.50980392157177 2.5 0  9.647058823532147 2.5 0  9.784313725492522 2.5 0  9.921568627452897 2.5 0  10.05882352941327 2.5 0  10.19607843137365 2.5 0  10.33333333333402 2.5 0  10.4705882352944 2.5 0  10.60784313725478 2.5 0  10.74509803921515 2.5 0  10.88235294117553 2.5 0  11.0196078431359 2.5 0  11.15686274509628 2.5 0  11.29411764705665 2.5 0  11.43137254901703 2.5 0  11.56862745097915 2.5 0  11.70588235294301 2.5 0  11.84313725490686 2.5 0  11.98039215687072 2.5 0  12.11764705883209 2.5 0  12.25490196079247 2.5 0  1
[...]
<PointData  Vectors="f_17"> 
<DataArray  type="Float64"  Name="f_17"  NumberOfComponents="3" format="ascii">1.0000001363836857e+00 0.0000000000000000e+00 0.0000000000000000e+00  1.0507239651081908e+00 0.0000000000000000e+00 0.0000000000000000e+00  1.0055696200298825e+00 0.0000000000000000e+00 0.0000000000000000e+00  9.9646907447420496e-01 0.0000000000000000e+00 0.0000000000000000e+00  9.9661794931393910e-01 0.0000000000000000e+00 0.0000000000000000e+00  1.0055206898600535e+00 0.0000000000000000e+00 0.0000000000000000e+00  1.0501112796839223e+00 0.0000000000000000e+00 0.0000000000000000e+00  1.0000001363836857e+00 0.0000000000000000e+00 0.0000000000000000e+00  1.0222288020686336e+00 -6.1631045487042499e-02 0.0000000000000000e+00  1.1625526303619849e+00 4.8909402241248581e-02 0.0000000000000000e+00  1.0116748954294945e+00 6.2355634947663472e-03 0.0000000000000000e+00  1.0110330770914608e+00 -6.1839779149295360e-03 0.0000000000000000e+00  1.1552568987874265e+00 -4.9042883748702464e-02 0.0000000000000000e+00  1.0217570361778923e+00 6.1616307658228980e-02 0.0000000000000000e+00  0.0000000000000000e+00 0.0000000000000000e+00 0.0000000000000000e+00  0.0000000000000000e+00 0.0000000000000000e+00 0.0000000000000000e+00  1.0000001363836857e+00 0.0000000000000000e+00 0.0000000000000000e+00  9.9931655530276919e-01 0.0000000000000000e+00 0.0000000000000000e+00  9.9879627749021194e-01 0.0000000000000000e+00 0.0000000000000000e+00  1.0008437331225364e+00 0.0000000000000000e+00 0.0000000000000000e+00  1.0007089150335282e+00 0.0000000000000000e+00 0.0000000000000000e+00  1.0017124686654026e+00 0.0000000000000000e+00 0.0000000000000000e+00  1.0020940685667832e+00 0.0000000000000000e+00 0.0000000000000000e+00  1.0024667652268267e+00 0.0000000000000000e+00 0.0000000000000000e+00  1.0033885633048161e+00 0.0000000000000000e+00 0.0000000000000000e+00  1.0047487566559925e+00 0.0000000000000000e+00 0.0000000000000000e+00  1.0060628345381999e+00 0.0000000000000000e+00 0.0000000000000000e+00  1.0077904646100941e+00 0.0000000000000000e+00 0.0000000000000000e+00  1.0103336988056320e+00 0.0000000000000000e+00 0.0000000000000000e+00  1.0131044391723729e+00 0.0000000000000000e+00 0.0000000000000000e+00  1.0176089169672193e+00 0.0000000000000000e+00 0.0000000000000000e+00  1.0200874377453557e+00 0.0000000000000000e+00 0.0000000000000000e+00  1.0256538242169158e+00 0.0000000000000000e+00 0.0000000000000000e+00  1.0336103846505822e+00 0.0000000000000000e+00 0.0000000000000000e+00  1.0406112574324380e+00 0.0000000000000000e+00 0.0000000000000000e+00  1.0612831991628973e+00 0.0000000000000000e+00 0.0000000000000000e+00  1.0728294116602308e+00 0.0000000000000000e+00 0.0000000000000000e+00  1.0844719590485643e+00 0.0000000000000000e+00 0.0000000000000000e+00  1.0973395953197165e+00 0.0000000000000000e+00 0.0000000000000000e+00  1.1091903647014407e+00 0.0000000000000000e+00 0.0000000000000000e+00  1.1208909593995957e+00 0.0000000000000000e+00 0.0000000000000000e+00  1.1323744710608359e+00 0.0000000000000000e+00 0.0000000000000000e+00  1.1411959746696159e+00 0.0000000000000000e+00 0.0000000000000000e+00  1.1490030660223356e+00 0.0000000000000000e+00 0.0000000000000000e+00  1.1546046613933316e+00 0.0000000000000000e+00 0.0000000000000000e+00  1.1585882284664963e+00 0.0000000000000000e+00 0.0000000000000000e+00  1.1596025928324383e+00 0.0000000000000000e+00 0.0000000000000000e+00  1.1598343900550068e+00 0.0000000000000000e+00 0.0000000000000000e+00  1.1578336824369386e+00 0.0000000000000000e+00 0.0000000000000000e+00  1.1543869801973778e+00 0.0000000000000000e+00 0.0000000000000000e+00  1.1500005716396970e+00 0.0000000000000000e+00 0.0000000000000000e+00  1.1442428916763396e+00 0.0000000000000000e+00 0.0000000000000000e+00  1.1377668088085242e+00 0.0000000000000000e+00 0.0000000000000000e+00  1.1299796297140756e+00 0.0000000000000000e+00 0.0000000000000000e+00  1.1215319021518892e+00 0.0000000000000000e+00 0.0000000000000000e+00  1.1136764344338983e+00 0.0000000000000000e+00 0.0000000000000000e+00  1.1063865836873681e+00 0.0000000000000000e+00 0.0000000000000000e+00  1.0976041880788254e+00 0.0000000000000000e+00 0.0000000000000000e+00  1.0902058090492412e+00 0.0000000000000000e+00 0.0000000000000000e+00  1.0828566624401794e+00 0.0000000000000000e+00 0.0000000000000000e+00  1.0760713062879554e+00 0.0000000000000000e+00 0.0000000000000000e+00  1.0701180644218979e+00 0.0000000000000000e+00 0.0000000000000000e+00  1.0644148307109478e+00 0.0000000000000000e+00 0.0000000000000000e+00  1.0591844100492154e+00 0.0000000000000000e+00 0.0000000000000000e+00  1.0548024762201764e+00 0.0000000000000000e+00 0.0000000000000000e+00  1.0501105802653181e+00 0.0000000000000000e+00 0.0000000000000000e+00  1.0455602831780537e+00 0.0000000000000000e+00 0.0000000000000000e+00  1.0428974803284585e+00 0.0000000000000000e+00 0.0000000000000000e+00  1.0393866660582700e+00 0.0000000000000000e+00 0.0000000000000000e+00  1.0359474665304906e+00 0.0000000000000000e+00 0.0000000000000000e+00  1.0337159595237309e+00 0.0000000000000000e+00 0.0000000000000000e+00  1.0307881159253685e+00 0.0000000000000000e+00 0.0000000000000000e+00  1.0278768211628790e+00 0.0000000000000000e+00 0.0000000000000000e+00  1.0265981752126414e+00 0.0000000000000000e+00 0.0000000000000000e+00  1.0245172653366434e+00 0.0000000000000000e+00 0.0000000000000000e+00  1.0224630627517310e+00 0.0000000000000000e+00 0.0000000000000000e+00  1.0213079528576416e+00 0.0000000000000000e+00 0.0000000000000000e+00  1.0195534836744915e+00 0.0000000000000000e+00 0.0000000000000000e+00  1.0178755509901838e+00 0.0000000000000000e+00 0.0000000000000000e+00  1.0169076153676717e+00 0.0000000000000000e+00 0.0000000000000000e+00  1.0150996420318712e+00 0.0000000000000000e+00 0.0000000000000000e+00  1.0131012537064823e+00 0.0000000000000000e+00 0.0000000000000000e+00  1.0135673244923782e+00 0.0000000000000000e+00 0.0000000000000000e+00  1.0121108323714012e+00 0.0000000000000000e+00 0.0000000000000000e+00  1.0091453815395266e+00 0.0000000000000000e+00 0.0000000000000000e+00  1.0073010688742352e+00 0.0000000000000000e+00 0.0000000000000000e+00  1.0071337202667594e+00 0.0000000000000000e+00 0.0000000000000000e+00  1.0061028999859898e+00 0.0000000000000000e+00 0.0000000000000000e+00  1.0047389258430410e+00 0.0000000000000000e+00 0.0000000000000000e+00  1.0031973583423139e+00 0.0000000000000000e+00 0.0000000000000000e+00  1.0016839423090724e+00 0.0000000000000000e+00 0.0000000000000000e+00  1.0010764090492792e+00 0.0000000000000000e+00 0.0000000000000000e+00  1.0005132972517445e+00 0.0000000000000000e+00 0.0000000000000000e+00  9.9959051425403056e-01 0.0000000000000000e+00 0.0000000000000000e+00  9.9878408905683869e-01 0.0000000000000000e+00 0.0000000000000000e+00  9.9832358083705697e-01 0.0000000000000000e+00 0.0000000000000000e+00  9.9795896671759809e-01 0.0000000000000000e+00 0.0000000000000000e+00  9.9720802183681889e-01 0.0000000000000000e+00 0.0000000000000000e+00  9.9703235138241852e-01 0.0000000000000000e+00 0.0000000000000000e+00  9.9670638884218232e-01 0.0000000000000000e+00 0.0000000000000000e+00  9.9615489827727155e-01 0.0000000000000000e+00 0.0000000000000000e+00  9.9613180804241519e-01 0.0000000000000000e+00 0.0000000000000000e+00  9.9603900964237357e-01 0.0000000000000000e+00 0.0000000000000000e+00  9.9647268316655691e-01 0.0000000000000000e+00 0.0000000000000000e+00  9.9598878251241996e-01 0.0000000000000000e+00 0.0000000000000000e+00  9.9605396708546667e-01 0.0000000000000000e+00 0.0000000000000000e+00  9.9582166592023569e-01 0.0000000000000000e+00 0.0000000000000000e+00  9.9626736305647312e-01 0.0000000000000000e+00 0.0000000000000000e+00  9.9608561822507724e-01 0.0000000000000000e+00 0.0000000000000000e+00  9.9650407906034033e-01 0.0000000000000000e+00 0.0000000000000000e+00  9.9607114546469777e-01 0.0000000000000000e+00 0.0000000000000000e+00  9.9705712642094879e-01 -3.9257039923993521e-05 0.0000000000000000e+00  9.9815205516935479e-01 -1.7036159850084099e-04 0.0000000000000000e+00  9.9990048511125562e-01 -1.9753761479815029e-04 0.0000000000000000e+00  1.0003736850564111e+00 -1.2174685009632067e-04 0.0000000000000000e+00  1.0013880371922572e+00 -1.4181978073777760e-04 0.0000000000000000e+00  1.0012610095953762e+00 -6.6159795126940446e-05 0.0000000000000000e+00  1.0010526974873202e+00 -1.0055399144151038e-05 0.0000000000000000e+00  1.0012713740152703e+00 2.0206778274581723e-05 0.0000000000000000e+00  1.0009781585508113e+00 3.4594582824075149e-07 0.0000000000000000e+00  1.0009841737365790e+00 1.4096897269322238e-04 0.0000000000000000e+00  1.0021978913125902e+00 -4.9136636852658254e-04 0.0000000000000000e+00  1.0024520163672910e+00 -3.4584267761256194e-04 0.0000000000000000e+00  1.0010843235332751e+00 -5.5842063942028507e-04 0.0000000000000000e+00  1.0000283792824858e+00 -4.5973589264041576e-04 0.0000000000000000e+00  1.0009402033270196e+00 9.0261592890057750e-05 0.0000000000000000e+00  1.0018157115379758e+00 3.9826358318692799e-04 0.0000000000000000e+00  1.0008861239476774e+00 -1.3340717270923617e-04 0.0000000000000000e+00  1.0003476173534056e+00 -3.0406810340569192e-05 0.0000000000000000e+00  9.9947332906046082e-01 1.1495226773981237e-04 0.0000000000000000e+00  9.9945937337303925e-01 1.2766097861695197e-04 0.0000000000000000e+00  9.9856117537757494e-01 1.6599088123076756e-04 0.0000000000000000e+00  9.9823024504463564e-01 1.2989451091503071e-04 0.0000000000000000e+00  9.9731882853069609e-01 1.5110550464808161e-05 0.0000000000000000e+00  9.9637198936232352e-01 0.0000000000000000e+00 0.0000000000000000e+00  9.9627262485432100e-01 0.0000000000000000e+00 0.0000000000000000e+00  9.9618090219223698e-01 0.0000000000000000e+00 0.0000000000000000e+00  9.9641064802213974e-01 0.0000000000000000e+00 0.0000000000000000e+00  9.9601444477997036e-01 0.0000000000000000e+00 0.0000000000000000e+00  9.9611367738697765e-01 0.0000000000000000e+00 0.0000000000000000e+00  9.9640994137363958e-01 0.0000000000000000e+00 0.0000000000000000e+00  9.9683691795469331e-01 0.0000000000000000e+00 0.0000000000000000e+00  9.9663347005762648e-01 0.0000000000000000e+00 0.0000000000000000e+00  9.9679485642339016e-01 0.0000000000000000e+00 0.0000000000000000e+00  9.9688658219096427e-01 0.0000000000000000e+00 0.0000000000000000e+00  9.9691914717205865e-01 0.0000000000000000e+00 0.0000000000000000e+00  9.9708290274972899e-01 0.0000000000000000e+00 0.0000000000000000e+00  9.9800810172888943e-01 0.0000000000000000e+00 0.0000000000000000e+00  9.9822843325236255e-01 0.0000000000000000e+00 0.0000000000000000e+00  9.9946203219465046e-01 0.0000000000000000e+00 0.0000000000000000e+00  9.9948272732560062e-01 0.0000000000000000e+00 0.0000000000000000e+00  1.0001095661835697e+00 0.0000000000000000e+00 0.0000000000000000e+00  1.0005377272080755e+00 0.0000000000000000e+00 0.0000000000000000e+00  1.0016268619450157e+00 0.0000000000000000e+00 0.0000000000000000e+00  1.0025440544302513e+00 0.0000000000000000e+00 0.0000000000000000e+00  1.0031678809147013e+00 0.0000000000000000e+00 0.0000000000000000e+00  1.0044196835287580e+00 0.0000000000000000e+00 0.0000000000000000e+00  1.0059793755999218e+00 0.0000000000000000e+00 0.0000000000000000e+00  1.0072186226420796e+00 0.0000000000000000e+00 0.0000000000000000e+00  1.0074307790096850e+00 0.0000000000000000e+00 0.0000000000000000e+00  1.0092056675711625e+00 0.0000000000000000e+00 0.0000000000000000e+00  1.0118075099771653e+00 0.0000000000000000e+00 0.0000000000000000e+00  1.0132664550598858e+00 0.0000000000000000e+00 0.0000000000000000e+00  1.0129048893996186e+00 0.0000000000000000e+00 0.0000000000000000e+00  1.0147521870777285e+00 0.0000000000000000e+00 0.0000000000000000e+00  1.0165322477777996e+00 0.0000000000000000e+00 0.0000000000000000e+00  1.0175343354698918e+00 0.0000000000000000e+00 0.0000000000000000e+00  1.0191755795647062e+00 0.0000000000000000e+00 0.0000000000000000e+00  1.0208640482646818e+00 0.0000000000000000e+00 0.0000000000000000e+00  1.0219341887213318e+00 0.0000000000000000e+00 0.0000000000000000e+00  1.0238897097188928e+00 0.0000000000000000e+00 0.0000000000000000e+00  1.0258539226815351e+00 0.0000000000000000e+00 0.0000000000000000e+00  1.0270968877494797e+00 0.0000000000000000e+00 0.0000000000000000e+00  1.0297482087197118e+00 0.0000000000000000e+00 0.0000000000000000e+00  1.0325285473173971e+00 0.0000000000000000e+00 0.0000000000000000e+00  1.0346484104855180e+00 0.0000000000000000e+00 0.0000000000000000e+00  1.0380019598540704e+00 0.0000000000000000e+00 0.0000000000000000e+00  1.0415437374762504e+00 0.0000000000000000e+00 0.0000000000000000e+00  1.0443329121785412e+00 0.0000000000000000e+00 0.0000000000000000e+00  1.0490723852527213e+00 0.0000000000000000e+00 0.0000000000000000e+00  1.0540421103962332e+00 0.0000000000000000e+00 0.0000000000000000e+00  1.0587475059315885e+00 0.0000000000000000e+00 0.0000000000000000e+00  1.0643409652819225e+00 0.0000000000000000e+00 0.0000000000000000e+00  1.0703151175058070e+00 0.0000000000000000e+00 0.0000000000000000e+00  1.0764994542402442e+00 0.0000000000000000e+00 0.0000000000000000e+00  1.0832968406602663e+00 0.0000000000000000e+00 0.0000000000000000e+00  1.0906144857072453e+00 0.0000000000000000e+00 0.0000000000000000e+00  1.0977107379434750e+00 0.0000000000000000e+00 0.0000000000000000e+00  1.1059939751116012e+00 0.0000000000000000e+00 0.0000000000000000e+00  1.1128409775748274e+00 0.0000000000000000e+00 0.0000000000000000e+00  1.1203161671229669e+00 0.0000000000000000e+00 0.0000000000000000e+00  1.1282126234686740e+00 0.0000000000000000e+00 0.0000000000000000e+00  1.1357889045324774e+00 0.0000000000000000e+00 0.0000000000000000e+00  1.1420840228050828e+00 0.0000000000000000e+00 0.0000000000000000e+00  1.1473493956693659e+00 0.0000000000000000e+00 0.0000000000000000e+00  1.1519019588549193e+00 0.0000000000000000e+00 0.0000000000000000e+00  1.1560667416433617e+00 0.0000000000000000e+00 0.0000000000000000e+00  1.1582393959713781e+00 0.0000000000000000e+00 0.0000000000000000e+00  1.1582184965353783e+00 0.0000000000000000e+00 0.0000000000000000e+00  1.1578498766270229e+00 0.0000000000000000e+00 0.0000000000000000e+00  1.1538285157457404e+00 0.0000000000000000e+00 0.0000000000000000e+00  1.1486972656758496e+00 0.0000000000000000e+00 0.0000000000000000e+00  1.1412064463329041e+00 0.0000000000000000e+00 0.0000000000000000e+00  1.1314746265428890e+00 0.0000000000000000e+00 0.0000000000000000e+00  1.1204362293392753e+00 0.0000000000000000e+00 0.0000000000000000e+00  1.1086809546115279e+00 0.0000000000000000e+00 0.0000000000000000e+00  1.0965648123418572e+00 0.0000000000000000e+00 0.0000000000000000e+00  1.0835394075135136e+00 0.0000000000000000e+00 0.0000000000000000e+00  1.0720959706092370e+00 0.0000000000000000e+00 0.0000000000000000e+00  1.0605963722251335e+00 0.0000000000000000e+00 0.0000000000000000e+00  1.0402400721512766e+00 0.0000000000000000e+00 0.0000000000000000e+00  1.0319027276036308e+00 0.0000000000000000e+00 0.0000000000000000e+00  1.0254256284648566e+00 0.0000000000000000e+00 0.0000000000000000e+00  1.0196237450031491e+00 0.0000000000000000e+00 0.0000000000000000e+00  1.0150419231501198e+00 0.0000000000000000e+00 0.0000000000000000e+00  1.0114254896244910e+00 0.0000000000000000e+00 0.0000000000000000e+00  1.0086441607867007e+00 0.0000000000000000e+00 0.0000000000000000e+00  1.0060747136326458e+00 0.0000000000000000e+00 0.0000000000000000e+00  1.0042826100244304e+00 0.0000000000000000e+00 0.0000000000000000e+00  1.0030395547315967e+00 0.0000000000000000e+00 0.0000000000000000e+00  1.0016825194829233e+00 0.0000000000000000e+00 0.0000000000000000e+00  1.0014265291696844e+00 0.0000000000000000e+00 0.0000000000000000e+00  1.0003107604362338e+00 0.0000000000000000e+00 0.0000000000000000e+00  1.0002489183180612e+00 0.0000000000000000e+00 0.0000000000000000e+00  9.9982021842837487e-01 0.0000000000000000e+00 0.0000000000000000e+00  1.0005053615136787e+00 0.0000000000000000e+00 0.0000000000000000e+00  1.0002547478946513e+00 0.0000000000000000e+00 0.0000000000000000e+00  9.9979491160485034e-01 0.0000000000000000e+00 0.0000000000000000e+00  1.0000001363836857e+00 0.0000000000000000e+00 0.0000000000000000e+00  1.0000001363836857e+00 0.0000000000000000e+00 0.0000000000000000e+00  1.0000001363836857e+00 0.0000000000000000e+00 0.0000000000000000e+00  1.0000001363836857e+00 0.0000000000000000e+00 0.0000000000000000e+00  1.0000001363836857e+00 0.0000000000000000e+00 0.0000000000000000e+00  1.0000001363836857e+00 0.0000000000000000e+00 0.0000000000000000e+00  1.0000001363836857e+00 0.0000000000000000e+00 0.0000000000000000e+00  1.0000001363836857e+00 0.0000000000000000e+00 0.0000000000000000e+00  1.0000001363836857e+00 0.0000000000000000e+00 0.0000000000000000e+00  1.0000001363836857e+00 0.0000000000000000e+00 0.0000000000000000e+00  1.0000001363836857e+00 0.0000000000000000e+00 0.0000000000000000e+00  1.0000001363836857e+00 0.0000000000000000e+00 0.0000000000000000e+00  1.0000001363836857e+00 0.0000000000000000e+00 0.0000000000000000e+00  1.0000001363836857e+00 0.0000000000000000e+00 0.0000000000000000e+00  1.0000001363836857e+00 0.0000000000000000e+00 0.0000000000000000e+00  1.0000001363836857e+00 0.0000000000000000e+00 0.0000000000000000e+00  1.0000001363836857e+00 0.0000000000000000e+00 0.0000000000000000e+00  1.0000001363836857e+00 0.0000000000000000e+00 0.0000000000000000e+00  1.0000001363836857e+00 0.0000000000000000e+00 0.0000000000000000e+00  1.0000001363836857e+00 0.0000000000000000e+00 0.0000000000000000e+00  1.0498077552781655e+00 -1.2214109403331822e-02 0.0000000000000000e+00  1.0457309873140086e+00 -2.4409365161222892e-02 0.0000000000000000e+00  1.0416991568945597e+00 -3.6867022955307305e-02 0.0000000000000000e+00  1.0336021274963492e+00 -4.9503339803702542e-02 0.0000000000000000e+00  1.0250073283122505e+00 -6.6301474445838157e-02 0.0000000000000000e+00  1.0296683231226020e+00 -7.0636124679500215e-02 0.0000000000000000e+00  1.0339097171281968e+00 -7.5122525527230796e-02 0.0000000000000000e+00  1.0392324256725227e+00 -7.9386236434745988e-02 0.0000000000000000e+00  1.0448550091508424e+00 -8.3584385550595844e-02 0.0000000000000000e+00  1.0511482295795533e+00 -8.7471994531885505e-02 0.0000000000000000e+00  1.0580711323099059e+00 -9.1094865955199306e-02 0.0000000000000000e+00  1.0655216386815336e+00 -9.4150949099587752e-02 0.0000000000000000e+00  1.0735290358445073e+00 -9.6790394082362799e-02 0.0000000000000000e+00  1.0817704871152833e+00 -9.8655627115190353e-02 0.0000000000000000e+00  1.0904224666944100e+00 -9.9981278751064329e-02 0.0000000000000000e+00  1.0992552393677493e+00 -1.0061743783096501e-01 0.0000000000000000e+00  1.1082602189010071e+00 -1.0032494423517621e-01 0.0000000000000000e+00  1.1170478619178155e+00 -9.9230622219780962e-02 0.0000000000000000e+00  1.1257237746164250e+00 -9.7497544383729748e-02 0.0000000000000000e+00  1.1341313330921394e+00 -9.5051695361257682e-02 0.0000000000000000e+00  1.1420637502181170e+00 -9.1908945355305402e-02 0.0000000000000000e+00  1.1495868796129822e+00 -8.8240847352725138e-02 0.0000000000000000e+00  1.1565417568684770e+00 -8.4119923324293855e-02 0.0000000000000000e+00  1.1630001863704060e+00 -7.9493649102546193e-02 0.0000000000000000e+00  1.1688921614052366e+00 -7.4723355072085759e-02 0.0000000000000000e+00  1.1742443070701702e+00 -6.9617772366495273e-02 0.0000000000000000e+00  1.1789266029741945e+00 -6.4285933154110270e-02 0.0000000000000000e+00  1.1831968341406149e+00 -5.8906204279608888e-02 0.0000000000000000e+00  1.1868189229984281e+00 -5.3492465420097363e-02 0.0000000000000000e+00  1.1899704427417974e+00 -4.8047546561208666e-02 0.0000000000000000e+00  1.1925893337566833e+00 -4.2624224324851162e-02 0.0000000000000000e+00  1.1947197800156344e+00 -3.7320119066264777e-02 0.0000000000000000e+00  1.1964337777031746e+00 -3.2022067669744629e-02 0.0000000000000000e+00  1.1976971184471648e+00 -2.6796487811794886e-02 0.0000000000000000e+00  1.1985826479761927e+00 -2.1729531158762670e-02 0.0000000000000000e+00  1.1990938242269003e+00 -1.68019