<?xml version="1.0"?>
<VTKFile type="UnstructuredGrid"  version="0.1"  >
<UnstructuredGrid>
<Piece  NumberOfPoints="10199" NumberOfCells="20110">
<Points>
<DataArray  type="Float64"  NumberOfComponents="3"  format="ascii">0 -5 0  8 -5 0  30 -5 0  40 -5 0  40 5 0  30 5 0  8 5 0  0 5 0  8 -2.5 0  15 -2.5 0  30 -2.5 0  30 2.5 0  15 2.5 0  8 2.5 0  10 0.5 0  10 -0.5 0  0 0 0  0.4210526315780956 -5 0  0.8421052631563433 -5 0  1.263157894734281 -5 0  1.684210526311999 -5 0  2.105263157889717 -5 0  2.526315789467435 -5 0  2.947368421045153 -5 0  3.368421052622872 -5 0  3.78947368420059 -5 0  4.210526315779479 -5 0  4.631578947359537 -5 0  5.052631578939595 -5 0  5.473684210519653 -5 0  5.89473684209971 -5 0  6.315789473679768 -5 0  6.736842105259826 -5 0  7.157894736839884 -5 0  7.578947368419942 -5 0  8.407407407405314 -5 0  8.814814814810628 -5 0  9.222222222215942 -5 0  9.629629629621256 -5 0  10.03703703702657 -5 0  10.44444444443188 -5 0  10.8518518518372 -5 0  11.25925925924251 -5 0  11.66666666664783 -5 0  12.07407407405314 -5 0  12.48148148145846 -5 0  12.88888888886377 -5 0  13.29629629626908 -5 0  13.7037037036744 -5 0  14.11111111107971 -5 0  14.51851851848502 -5 0  14.92592592589034 -5 0  15.33333333329565 -5 0  15.74074074070096 -5 0  16.14814814810754 -5 0  16.55555555551614 -5 0  16.96296296292474 -5 0  17.37037037033335 -5 0  17.77777777774195 -5 0  18.18518518515056 -5 0  18.59259259255916 -5 0  18.99999999996776 -5 0  19.40740740737636 -5 0  19.81481481478497 -5 0  20.22222222219357 -5 0  20.62962962960217 -5 0  21.03703703701077 -5 0  21.44444444441937 -5 0  21.85185185182797 -5 0  22.25925925923657 -5 0  22.66666666664518 -5 0  23.07407407405378 -5 0  23.48148148146238 -5 0  23.88888888887098 -5 0  24.29629629627958 -5 0  24.70370370368818 -5 0  25.11111111109678 -5 0  25.51851851850539 -5 0  25.92592592591399 -5 0  26.33333333332259 -5 0  26.74074074073119 -5 0  27.14814814813979 -5 0  27.55555555554839 -5 0  27.96296296295699 -5 0  28.3703703703656 -5 0  28.7777777777742 -5 0  29.1851851851828 -5 0  29.5925925925914 -5 0  30.41666666667852 -5 0  30.83333333335704 -5 0  31.25000000003556 -5 0  31.66666666671408 -5 0  32.08333333338936 -5 0  32.50000000005308 -5 0  32.9166666667168 -5 0  33.33333333338052 -5 0  33.75000000004424 -5 0  34.16666666670795 -5 0  34.58333333337167 -5 0  35.00000000003539 -5 0  35.41666666669911 -5 0  35.83333333336282 -5 0  36.25000000002654 -5 0  36.66666666669026 -5 0  37.08333333335398 -5 0  37.50000000001769 -5 0  37.91666666668141 -5 0  38.33333333334513 -5 0  38.75000000000885 -5 0  39.16666666667257 -5 0  39.58333333333628 -5 0  40 -4.583333333332821 0  40 -4.166666666665642 0  40 -3.74999999999855 0  40 -3.333333333333135 0  40 -2.916666666667806 0  40 -2.500000000002478 0  40 -2.083333333337148 0  40 -1.666666666671818 0  40 -1.250000000006488 0  40 -0.8333333333405228 0  40 -0.4166666666733416 0  40 -6.163070054299169e-12 0  40 0.4166666666610173 0  40 0.8333333333281976 0  40 1.249999999995378 0  40 1.666666666662558 0  40 2.083333333329739 0  40 2.499999999996919 0  40 2.916666666664099 0  40 3.33333333333128 0  40 3.74999999999846 0  40 4.166666666665641 0  40 4.583333333332821 0  39.58333333333628 5 0  39.16666666667256 5 0  38.75000000000885 5 0  38.33333333334513 5 0  37.91666666668141 5 0  37.50000000001769 5 0  37.08333333335398 5 0  36.66666666669025 5 0  36.25000000002654 5 0  35.83333333336282 5 0  35.41666666669911 5 0  35.00000000003539 5 0  34.58333333337167 5 0  34.16666666670795 5 0  33.75000000004424 5 0  33.33333333338052 5 0  32.9166666667168 5 0  32.50000000005308 5 0  32.08333333338936 5 0  31.66666666671408 5 0  31.25000000003556 5 0  30.83333333335704 5 0  30.41666666667852 5 0  29.59259259259259 5 0  29.18518518518519 5 0  28.77777777777778 5 0  28.37037037037037 5 0  27.96296296296296 5 0  27.55555555555556 5 0  27.14814814814815 5 0  26.74074074074074 5 0  26.33333333333333 5 0  25.92592592592593 5 0  25.51851851851852 5 0  25.11111111111111 5 0  24.7037037037037 5 0  24.2962962962963 5 0  23.88888888888889 5 0  23.48148148148148 5 0  23.07407407407408 5 0  22.66666666666667 5 0  22.25925925925926 5 0  21.85185185185185 5 0  21.44444444444445 5 0  21.03703703703704 5 0  20.62962962962963 5 0  20.22222222222222 5 0  19.81481481481482 5 0  19.40740740740741 5 0  19 5 0  18.5925925925926 5 0  18.18518518518519 5 0  17.77777777777778 5 0  17.37037037037037 5 0  16.96296296296296 5 0  16.55555555555556 5 0  16.14814814814815 5 0  15.74074074074074 5 0  15.33333333333333 5 0  14.92592592592593 5 0  14.51851851851852 5 0  14.11111111111111 5 0  13.70370370370371 5 0  13.2962962962963 5 0  12.88888888888889 5 0  12.48148148148148 5 0  12.07407407407408 5 0  11.66666666666667 5 0  11.25925925925926 5 0  10.85185185185185 5 0  10.44444444444445 5 0  10.03703703703704 5 0  9.629629629629633 5 0  9.222222222222221 5 0  8.814814814814817 5 0  8.407407407407408 5 0  7.5789473684193 5 0  7.157894736838599 5 0  6.73684210526082 5 0  6.315789473684795 5 0  5.894736842108769 5 0  5.473684210532742 5 0  5.052631578956715 5 0  4.631578947380689 5 0  4.210526315804662 5 0  3.789473684226299 5 0  3.368421052645599 5 0  2.947368421064898 5 0  2.526315789484198 5 0  2.105263157903499 5 0  1.6842105263228 5 0  1.2631578947421 5 0  0.8421052631613994 5 0  0.4210526315806993 5 0  0 4.545454545454545 0  0 4.09090909090909 0  0 3.636363636363634 0  0 3.18181818181818 0  0 2.727272727272726 0  0 2.272727272727271 0  0 1.818181818181817 0  0 1.363636363636363 0  0 0.9090909090909092 0  0 0.454545454545455 0  0 -0.4545454545450807 0  0 -0.9090909090895867 0  0 -1.363636363633713 0  0 -1.818181818177841 0  0 -2.272727272723127 0  0 -2.727272727269273 0  0 -3.181818181815419 0  0 -3.636363636361564 0  0 -4.090909090907709 0  0 -4.545454545453855 0  8 -4.499999999999999 0  8 -3.999999999999999 0  8 -3.499999999999999 0  8 -3 0  8.137254901963859 -2.5 0  8.274509803926303 -2.5 0  8.411764705886863 -2.5 0  8.549019607849138 -2.5 0  8.686274509809513 -2.5 0  8.82352941176989 -2.5 0  8.960784313730265 -2.5 0  9.098039215690642 -2.5 0  9.235294117651017 -2.5 0  9.372549019611395 -2.5 0  9.50980392157177 -2.5 0  9.647058823532147 -2.5 0  9.784313725492522 -2.5 0  9.921568627452897 -2.5 0  10.05882352941327 -2.5 0  10.19607843137365 -2.5 0  10.33333333333402 -2.5 0  10.4705882352944 -2.5 0  10.60784313725478 -2.5 0  10.74509803921515 -2.5 0  10.88235294117553 -2.5 0  11.0196078431359 -2.5 0  11.15686274509628 -2.5 0  11.29411764705665 -2.5 0  11.43137254901703 -2.5 0  11.56862745097915 -2.5 0  11.70588235294301 -2.5 0  11.84313725490686 -2.5 0  11.98039215687072 -2.5 0  12.11764705883209 -2.5 0  12.25490196079247 -2.5 0  12.39215686275285 -2.5 0  12.52941176471322 -2.5 0  12.6666666666736 -2.5 0  12.80392156863397 -2.5 0  12.94117647059435 -2.5 0  13.07843137255473 -2.5 0  13.2156862745151 -2.5 0  13.35294117647548 -2.5 0  13.49019607843586 -2.5 0  13.62745098039623 -2.5 0  13.76470588235661 -2.5 0  13.90196078431699 -2.5 0  14.03921568627736 -2.5 0  14.17647058823774 -2.5 0  14.31372549019812 -2.5 0  14.45098039215849 -2.5 0  14.58823529411887 -2.5 0  14.72549019607925 -2.5 0  14.86274509803962 -2.5 0  15.20270270270254 -2.5 0  15.40540540540509 -2.5 0  15.60810810810763 -2.5 0  15.81081081081017 -2.5 0  16.01351351351227 -2.5 0  16.21621621621265 -2.5 0  16.41891891891279 -2.5 0  16.62162162161294 -2.5 0  16.82432432431308 -2.5 0  17.02702702701322 -2.5 0  17.22972972971337 -2.5 0  17.43243243241351 -2.5 0  17.63513513511365 -2.5 0  17.83783783781379 -2.5 0  18.04054054051394 -2.5 0  18.24324324321408 -2.5 0  18.44594594591422 -2.5 0  18.64864864861436 -2.5 0  18.85135135131451 -2.5 0  19.05405405401465 -2.5 0  19.25675675671479 -2.5 0  19.45945945941494 -2.5 0  19.66216216211508 -2.5 0  19.86486486481522 -2.5 0  20.06756756751536 -2.5 0  20.27027027021551 -2.5 0  20.47297297291565 -2.5 0  20.6756756756158 -2.5 0  20.87837837831594 -2.5 0  21.08108108101608 -2.5 0  21.28378378371622 -2.5 0  21.48648648641637 -2.5 0  21.68918918911651 -2.5 0  21.89189189181666 -2.5 0  22.0945945945168 -2.5 0  22.29729729721694 -2.5 0  22.49999999991778 -2.5 0  22.70270270262203 -2.5 0  22.90540540532697 -2.5 0  23.10810810803191 -2.5 0  23.31081081073686 -2.5 0  23.5135135134418 -2.5 0  23.71621621614674 -2.5 0  23.91891891885169 -2.5 0  24.12162162155663 -2.5 0  24.32432432426158 -2.5 0  24.52702702696652 -2.5 0  24.72972972967146 -2.5 0  24.93243243237641 -2.5 0  25.13513513508135 -2.5 0  25.3378378377863 -2.5 0  25.54054054049124 -2.5 0  25.74324324319618 -2.5 0  25.94594594590112 -2.5 0  26.14864864860607 -2.5 0  26.35135135131101 -2.5 0  26.55405405401596 -2.5 0  26.7567567567209 -2.5 0  26.95945945942584 -2.5 0  27.16216216213079 -2.5 0  27.36486486483573 -2.5 0  27.56756756754068 -2.5 0  27.77027027024562 -2.5 0  27.97297297295056 -2.5 0  28.1756756756555 -2.5 0  28.37837837836045 -2.5 0  28.5810810810654 -2.5 0  28.78378378377034 -2.5 0  28.98648648647528 -2.5 0  29.18918918918023 -2.5 0  29.39189189188517 -2.5 0  29.59459459459011 -2.5 0  29.79729729729506 -2.5 0  30 -3.000000000000001 0  30 -3.500000000000001 0  30 -4.000000000000001 0  30 -4.5 0  8 4.499999999999999 0  8 3.999999999999999 0  8 3.499999999999999 0  8 3 0  8.137254901963859 2.5 0  8.274509803926303 2.5 0  8.411764705886863 2.5 0  8.549019607849138 2.5 0  8.686274509809513 2.5 0  8.82352941176989 2.5 0  8.960784313730265 2.5 0  9.098039215690642 2.5 0  9.235294117651017 2.5 0  9.372549019611395 2.5 0  9.50980392157177 2.5 0  9.647058823532147 2.5 0  9.784313725492522 2.5 0  9.921568627452897 2.5 0  10.05882352941327 2.5 0  10.19607843137365 2.5 0  10.33333333333402 2.5 0  10.4705882352944 2.5 0  10.60784313725478 2.5 0  10.74509803921515 2.5 0  10.88235294117553 2.5 0  11.0196078431359 2.5 0  11.15686274509628 2.5 0  11.29411764705665 2.5 0  11.43137254901703 2.5 0  11.56862745097915 2.5 0  11.70588235294301 2.5 0  11.84313725490686 2.5 0  11.98039215687072 2.5 0  12.11764705883209 2.5 0  12.25490196079247 2.5 0  1
[...]
<PointData  Vectors="f_17"> 
<DataArray  type="Float64"  Name="f_17"  NumberOfComponents="3" format="ascii">1.0000001305246486e+00 0.0000000000000000e+00 0.0000000000000000e+00  1.0426348286914151e+00 0.0000000000000000e+00 0.0000000000000000e+00  1.0535578860720378e+00 0.0000000000000000e+00 0.0000000000000000e+00  1.0783043989528578e+00 0.0000000000000000e+00 0.0000000000000000e+00  1.0860220354920711e+00 0.0000000000000000e+00 0.0000000000000000e+00  1.0607912374295421e+00 0.0000000000000000e+00 0.0000000000000000e+00  1.0382324107644969e+00 0.0000000000000000e+00 0.0000000000000000e+00  1.0000001305246486e+00 0.0000000000000000e+00 0.0000000000000000e+00  1.0242814322255103e+00 -5.2490342499330739e-02 0.0000000000000000e+00  1.1162062696071267e+00 -4.2322834210995509e-02 0.0000000000000000e+00  1.0464402883125463e+00 -8.1299571295905496e-02 0.0000000000000000e+00  1.0777580088272216e+00 -7.3200859607951405e-02 0.0000000000000000e+00  1.0138833498850632e+00 -7.5300794766980567e-02 0.0000000000000000e+00  1.0185040602992783e+00 4.9106803067793560e-02 0.0000000000000000e+00  0.0000000000000000e+00 0.0000000000000000e+00 0.0000000000000000e+00  0.0000000000000000e+00 0.0000000000000000e+00 0.0000000000000000e+00  1.0000001305246486e+00 0.0000000000000000e+00 0.0000000000000000e+00  9.9928969958059954e-01 0.0000000000000000e+00 0.0000000000000000e+00  9.9873431120142775e-01 0.0000000000000000e+00 0.0000000000000000e+00  1.0008106065199800e+00 0.0000000000000000e+00 0.0000000000000000e+00  1.0006653438918582e+00 0.0000000000000000e+00 0.0000000000000000e+00  1.0017125940498279e+00 0.0000000000000000e+00 0.0000000000000000e+00  1.0021342737374572e+00 0.0000000000000000e+00 0.0000000000000000e+00  1.0025645648771242e+00 0.0000000000000000e+00 0.0000000000000000e+00  1.0035350478353673e+00 0.0000000000000000e+00 0.0000000000000000e+00  1.0048934721866098e+00 0.0000000000000000e+00 0.0000000000000000e+00  1.0061366644268517e+00 0.0000000000000000e+00 0.0000000000000000e+00  1.0076966151271474e+00 0.0000000000000000e+00 0.0000000000000000e+00  1.0099900574220018e+00 0.0000000000000000e+00 0.0000000000000000e+00  1.0123679862798423e+00 0.0000000000000000e+00 0.0000000000000000e+00  1.0162958016044912e+00 0.0000000000000000e+00 0.0000000000000000e+00  1.0180125180685660e+00 0.0000000000000000e+00 0.0000000000000000e+00  1.0225526468445088e+00 0.0000000000000000e+00 0.0000000000000000e+00  1.0292907890374579e+00 0.0000000000000000e+00 0.0000000000000000e+00  1.0347054949125343e+00 0.0000000000000000e+00 0.0000000000000000e+00  1.0505557947917470e+00 0.0000000000000000e+00 0.0000000000000000e+00  1.0587995970994541e+00 0.0000000000000000e+00 0.0000000000000000e+00  1.0662805704753275e+00 0.0000000000000000e+00 0.0000000000000000e+00  1.0739144030239389e+00 0.0000000000000000e+00 0.0000000000000000e+00  1.0796259282783700e+00 0.0000000000000000e+00 0.0000000000000000e+00  1.0840892075298483e+00 0.0000000000000000e+00 0.0000000000000000e+00  1.0875479972246955e+00 0.0000000000000000e+00 0.0000000000000000e+00  1.0879265818994206e+00 0.0000000000000000e+00 0.0000000000000000e+00  1.0871407690762487e+00 0.0000000000000000e+00 0.0000000000000000e+00  1.0848307546327969e+00 0.0000000000000000e+00 0.0000000000000000e+00  1.0822098259290485e+00 0.0000000000000000e+00 0.0000000000000000e+00  1.0785851905165873e+00 0.0000000000000000e+00 0.0000000000000000e+00  1.0765736505156038e+00 0.0000000000000000e+00 0.0000000000000000e+00  1.0753067166138923e+00 0.0000000000000000e+00 0.0000000000000000e+00  1.0746951637542097e+00 0.0000000000000000e+00 0.0000000000000000e+00  1.0749112263801310e+00 0.0000000000000000e+00 0.0000000000000000e+00  1.0748223918434583e+00 0.0000000000000000e+00 0.0000000000000000e+00  1.0738647127192902e+00 0.0000000000000000e+00 0.0000000000000000e+00  1.0710587522609742e+00 0.0000000000000000e+00 0.0000000000000000e+00  1.0662109527623003e+00 0.0000000000000000e+00 0.0000000000000000e+00  1.0609465848292181e+00 0.0000000000000000e+00 0.0000000000000000e+00  1.0552107380157301e+00 0.0000000000000000e+00 0.0000000000000000e+00  1.0482275098864331e+00 0.0000000000000000e+00 0.0000000000000000e+00  1.0431701301158722e+00 0.0000000000000000e+00 0.0000000000000000e+00  1.0397590832536203e+00 0.0000000000000000e+00 0.0000000000000000e+00  1.0387190367900623e+00 0.0000000000000000e+00 0.0000000000000000e+00  1.0406600341530929e+00 0.0000000000000000e+00 0.0000000000000000e+00  1.0443922386633191e+00 0.0000000000000000e+00 0.0000000000000000e+00  1.0495185597346073e+00 0.0000000000000000e+00 0.0000000000000000e+00  1.0554024215817952e+00 0.0000000000000000e+00 0.0000000000000000e+00  1.0594657469136193e+00 0.0000000000000000e+00 0.0000000000000000e+00  1.0615500974491690e+00 0.0000000000000000e+00 0.0000000000000000e+00  1.0626515243990744e+00 0.0000000000000000e+00 0.0000000000000000e+00  1.0603509549464920e+00 0.0000000000000000e+00 0.0000000000000000e+00  1.0561360140615770e+00 0.0000000000000000e+00 0.0000000000000000e+00  1.0520764449136064e+00 0.0000000000000000e+00 0.0000000000000000e+00  1.0475321676641947e+00 0.0000000000000000e+00 0.0000000000000000e+00  1.0441124231592898e+00 0.0000000000000000e+00 0.0000000000000000e+00  1.0441852218369330e+00 0.0000000000000000e+00 0.0000000000000000e+00  1.0453983481634246e+00 0.0000000000000000e+00 0.0000000000000000e+00  1.0484451945164992e+00 0.0000000000000000e+00 0.0000000000000000e+00  1.0535473162136291e+00 0.0000000000000000e+00 0.0000000000000000e+00  1.0581737470679489e+00 0.0000000000000000e+00 0.0000000000000000e+00  1.0619421259849113e+00 0.0000000000000000e+00 0.0000000000000000e+00  1.0647114120258550e+00 0.0000000000000000e+00 0.0000000000000000e+00  1.0644585994323328e+00 0.0000000000000000e+00 0.0000000000000000e+00  1.0618236269999790e+00 0.0000000000000000e+00 0.0000000000000000e+00  1.0601724009256144e+00 0.0000000000000000e+00 0.0000000000000000e+00  1.0560294470061748e+00 0.0000000000000000e+00 0.0000000000000000e+00  1.0506432095241365e+00 0.0000000000000000e+00 0.0000000000000000e+00  1.0477855509866856e+00 0.0000000000000000e+00 0.0000000000000000e+00  1.0483527023712500e+00 0.0000000000000000e+00 0.0000000000000000e+00  1.0500006716398242e+00 0.0000000000000000e+00 0.0000000000000000e+00  1.0577816434956446e+00 0.0000000000000000e+00 0.0000000000000000e+00  1.0610543399362902e+00 0.0000000000000000e+00 0.0000000000000000e+00  1.0633151020333145e+00 0.0000000000000000e+00 0.0000000000000000e+00  1.0648437122002863e+00 0.0000000000000000e+00 0.0000000000000000e+00  1.0642285076843541e+00 0.0000000000000000e+00 0.0000000000000000e+00  1.0616263021515058e+00 0.0000000000000000e+00 0.0000000000000000e+00  1.0578782750019236e+00 0.0000000000000000e+00 0.0000000000000000e+00  1.0545901322881637e+00 0.0000000000000000e+00 0.0000000000000000e+00  1.0521741870299701e+00 0.0000000000000000e+00 0.0000000000000000e+00  1.0511178547747746e+00 0.0000000000000000e+00 0.0000000000000000e+00  1.0525095842573688e+00 0.0000000000000000e+00 0.0000000000000000e+00  1.0556410192238139e+00 0.0000000000000000e+00 0.0000000000000000e+00  1.0595525249926985e+00 0.0000000000000000e+00 0.0000000000000000e+00  1.0642439241579367e+00 0.0000000000000000e+00 0.0000000000000000e+00  1.0680989869649042e+00 0.0000000000000000e+00 0.0000000000000000e+00  1.0710920577576712e+00 0.0000000000000000e+00 0.0000000000000000e+00  1.0713546405771477e+00 0.0000000000000000e+00 0.0000000000000000e+00  1.0707118085470357e+00 0.0000000000000000e+00 0.0000000000000000e+00  1.0688797707103153e+00 0.0000000000000000e+00 0.0000000000000000e+00  1.0677592046134370e+00 0.0000000000000000e+00 0.0000000000000000e+00  1.0669902914827099e+00 0.0000000000000000e+00 0.0000000000000000e+00  1.0687936534373248e+00 0.0000000000000000e+00 0.0000000000000000e+00  1.0720147081833844e+00 0.0000000000000000e+00 0.0000000000000000e+00  1.0780804696445561e+00 -7.1737633126266421e-03 0.0000000000000000e+00  1.0763039071640812e+00 -1.5458855108949489e-02 0.0000000000000000e+00  1.0721932253556048e+00 -2.5823874037223790e-02 0.0000000000000000e+00  1.0619701732503553e+00 -3.9305140925630346e-02 0.0000000000000000e+00  1.0452342768470211e+00 -5.9601234651461839e-02 0.0000000000000000e+00  1.0205920483426565e+00 -8.8179216840768446e-02 0.0000000000000000e+00  9.8794636993364426e-01 -1.3558365750315443e-01 0.0000000000000000e+00  9.3893547497448182e-01 -1.8473528434175948e-01 0.0000000000000000e+00  8.6821811105006785e-01 -2.2496215201918868e-01 0.0000000000000000e+00  7.9365623394054441e-01 -2.4941750643882521e-01 0.0000000000000000e+00  7.4112771199053940e-01 -2.5951267845273390e-01 0.0000000000000000e+00  7.3146118439632812e-01 -2.6165803348039646e-01 0.0000000000000000e+00  7.7402062465580557e-01 -2.5850574982897850e-01 0.0000000000000000e+00  8.6725366090797007e-01 -2.4371663249080680e-01 0.0000000000000000e+00  9.8386709130797134e-01 -2.0934303905123608e-01 0.0000000000000000e+00  1.0824123966771528e+00 -1.5520279857815295e-01 0.0000000000000000e+00  1.1329994291138892e+00 -1.0303729351068987e-01 0.0000000000000000e+00  1.1420508450001978e+00 -5.7748964018937803e-02 0.0000000000000000e+00  1.1265529414577067e+00 -3.1059538831012916e-02 0.0000000000000000e+00  1.1088284733926241e+00 -1.4109426074353743e-02 0.0000000000000000e+00  1.0970419191136953e+00 -5.8798605126251721e-03 0.0000000000000000e+00  1.0913056180406966e+00 -2.2216116994553739e-03 0.0000000000000000e+00  1.0876344920998100e+00 -7.7371973920220712e-04 0.0000000000000000e+00  1.0856093765319166e+00 0.0000000000000000e+00 0.0000000000000000e+00  1.0834908627185760e+00 0.0000000000000000e+00 0.0000000000000000e+00  1.0794206429558131e+00 0.0000000000000000e+00 0.0000000000000000e+00  1.0742281418615227e+00 0.0000000000000000e+00 0.0000000000000000e+00  1.0678991467081476e+00 0.0000000000000000e+00 0.0000000000000000e+00  1.0626804474022669e+00 0.0000000000000000e+00 0.0000000000000000e+00  1.0590414722508465e+00 0.0000000000000000e+00 0.0000000000000000e+00  1.0576941681339367e+00 0.0000000000000000e+00 0.0000000000000000e+00  1.0578303318533653e+00 0.0000000000000000e+00 0.0000000000000000e+00  1.0599607031434719e+00 0.0000000000000000e+00 0.0000000000000000e+00  1.0628818559173741e+00 0.0000000000000000e+00 0.0000000000000000e+00  1.0655691311069364e+00 0.0000000000000000e+00 0.0000000000000000e+00  1.0672793211569758e+00 0.0000000000000000e+00 0.0000000000000000e+00  1.0680349599170720e+00 0.0000000000000000e+00 0.0000000000000000e+00  1.0660718825953897e+00 0.0000000000000000e+00 0.0000000000000000e+00  1.0635645190400405e+00 0.0000000000000000e+00 0.0000000000000000e+00  1.0587752442793594e+00 0.0000000000000000e+00 0.0000000000000000e+00  1.0545573833624884e+00 0.0000000000000000e+00 0.0000000000000000e+00  1.0511818161029562e+00 0.0000000000000000e+00 0.0000000000000000e+00  1.0500725425888333e+00 0.0000000000000000e+00 0.0000000000000000e+00  1.0507377458704059e+00 0.0000000000000000e+00 0.0000000000000000e+00  1.0529871196056488e+00 0.0000000000000000e+00 0.0000000000000000e+00  1.0568477099814528e+00 0.0000000000000000e+00 0.0000000000000000e+00  1.0630500305627961e+00 0.0000000000000000e+00 0.0000000000000000e+00  1.0644869304628224e+00 0.0000000000000000e+00 0.0000000000000000e+00  1.0628396333639445e+00 0.0000000000000000e+00 0.0000000000000000e+00  1.0608081120016228e+00 0.0000000000000000e+00 0.0000000000000000e+00  1.0582829846868207e+00 0.0000000000000000e+00 0.0000000000000000e+00  1.0542351550544931e+00 0.0000000000000000e+00 0.0000000000000000e+00  1.0487925207291422e+00 0.0000000000000000e+00 0.0000000000000000e+00  1.0470879521400296e+00 0.0000000000000000e+00 0.0000000000000000e+00  1.0471644179254240e+00 0.0000000000000000e+00 0.0000000000000000e+00  1.0483732009672235e+00 0.0000000000000000e+00 0.0000000000000000e+00  1.0518009739665970e+00 0.0000000000000000e+00 0.0000000000000000e+00  1.0560897229260471e+00 0.0000000000000000e+00 0.0000000000000000e+00  1.0595080363999925e+00 0.0000000000000000e+00 0.0000000000000000e+00  1.0624571227697091e+00 0.0000000000000000e+00 0.0000000000000000e+00  1.0631988622858615e+00 0.0000000000000000e+00 0.0000000000000000e+00  1.0607835370155312e+00 0.0000000000000000e+00 0.0000000000000000e+00  1.0574541405043207e+00 0.0000000000000000e+00 0.0000000000000000e+00  1.0526909457100804e+00 0.0000000000000000e+00 0.0000000000000000e+00  1.0466883023393205e+00 0.0000000000000000e+00 0.0000000000000000e+00  1.0425824070450858e+00 0.0000000000000000e+00 0.0000000000000000e+00  1.0400538533862023e+00 0.0000000000000000e+00 0.0000000000000000e+00  1.0387384289151116e+00 0.0000000000000000e+00 0.0000000000000000e+00  1.0413271088664660e+00 0.0000000000000000e+00 0.0000000000000000e+00  1.0457241498476504e+00 0.0000000000000000e+00 0.0000000000000000e+00  1.0505639712292612e+00 0.0000000000000000e+00 0.0000000000000000e+00  1.0558802772679672e+00 0.0000000000000000e+00 0.0000000000000000e+00  1.0603442239676124e+00 0.0000000000000000e+00 0.0000000000000000e+00  1.0625528552010328e+00 0.0000000000000000e+00 0.0000000000000000e+00  1.0629443041629694e+00 0.0000000000000000e+00 0.0000000000000000e+00  1.0611430499129531e+00 0.0000000000000000e+00 0.0000000000000000e+00  1.0576266360183690e+00 0.0000000000000000e+00 0.0000000000000000e+00  1.0543337785684301e+00 0.0000000000000000e+00 0.0000000000000000e+00  1.0505696275015040e+00 0.0000000000000000e+00 0.0000000000000000e+00  1.0487691406994322e+00 0.0000000000000000e+00 0.0000000000000000e+00  1.0499968959827881e+00 0.0000000000000000e+00 0.0000000000000000e+00  1.0534965843602191e+00 0.0000000000000000e+00 0.0000000000000000e+00  1.0586020404085259e+00 0.0000000000000000e+00 0.0000000000000000e+00  1.0648951911351647e+00 0.0000000000000000e+00 0.0000000000000000e+00  1.0723121106351299e+00 0.0000000000000000e+00 0.0000000000000000e+00  1.0804485177170144e+00 0.0000000000000000e+00 0.0000000000000000e+00  1.0870593108854005e+00 0.0000000000000000e+00 0.0000000000000000e+00  1.0920143789661994e+00 0.0000000000000000e+00 0.0000000000000000e+00  1.0966578255583885e+00 0.0000000000000000e+00 0.0000000000000000e+00  1.0976574497137175e+00 0.0000000000000000e+00 0.0000000000000000e+00  1.0976126729898910e+00 0.0000000000000000e+00 0.0000000000000000e+00  1.0953159538007660e+00 0.0000000000000000e+00 0.0000000000000000e+00  1.0907369332167580e+00 0.0000000000000000e+00 0.0000000000000000e+00  1.0848486347800921e+00 0.0000000000000000e+00 0.0000000000000000e+00  1.0781258441397250e+00 0.0000000000000000e+00 0.0000000000000000e+00  1.0706447978122338e+00 0.0000000000000000e+00 0.0000000000000000e+00  1.0619898184769969e+00 0.0000000000000000e+00 0.0000000000000000e+00  1.0542389274553787e+00 0.0000000000000000e+00 0.0000000000000000e+00  1.0460042053123257e+00 0.0000000000000000e+00 0.0000000000000000e+00  1.0307826963249034e+00 0.0000000000000000e+00 0.0000000000000000e+00  1.0243371499328284e+00 0.0000000000000000e+00 0.0000000000000000e+00  1.0192562330674344e+00 0.0000000000000000e+00 0.0000000000000000e+00  1.0147070709027408e+00 0.0000000000000000e+00 0.0000000000000000e+00  1.0110013666080695e+00 0.0000000000000000e+00 0.0000000000000000e+00  1.0080968541055775e+00 0.0000000000000000e+00 0.0000000000000000e+00  1.0059323083389673e+00 0.0000000000000000e+00 0.0000000000000000e+00  1.0038570325072997e+00 0.0000000000000000e+00 0.0000000000000000e+00  1.0025022079429091e+00 0.0000000000000000e+00 0.0000000000000000e+00  1.0016377373660805e+00 0.0000000000000000e+00 0.0000000000000000e+00  1.0006461723258206e+00 0.0000000000000000e+00 0.0000000000000000e+00  1.0006826850744523e+00 0.0000000000000000e+00 0.0000000000000000e+00  9.9982073592937071e-01 0.0000000000000000e+00 0.0000000000000000e+00  9.9996645702250286e-01 0.0000000000000000e+00 0.0000000000000000e+00  9.9968441994071300e-01 0.0000000000000000e+00 0.0000000000000000e+00  1.0004515927587141e+00 0.0000000000000000e+00 0.0000000000000000e+00  1.0002429853656156e+00 0.0000000000000000e+00 0.0000000000000000e+00  9.9979817972149487e-01 0.0000000000000000e+00 0.0000000000000000e+00  1.0000001305246486e+00 0.0000000000000000e+00 0.0000000000000000e+00  1.0000001305246486e+00 0.0000000000000000e+00 0.0000000000000000e+00  1.0000001305246486e+00 0.0000000000000000e+00 0.0000000000000000e+00  1.0000001305246486e+00 0.0000000000000000e+00 0.0000000000000000e+00  1.0000001305246486e+00 0.0000000000000000e+00 0.0000000000000000e+00  1.0000001305246486e+00 0.0000000000000000e+00 0.0000000000000000e+00  1.0000001305246486e+00 0.0000000000000000e+00 0.0000000000000000e+00  1.0000001305246486e+00 0.0000000000000000e+00 0.0000000000000000e+00  1.0000001305246486e+00 0.0000000000000000e+00 0.0000000000000000e+00  1.0000001305246486e+00 0.0000000000000000e+00 0.0000000000000000e+00  1.0000001305246486e+00 0.0000000000000000e+00 0.0000000000000000e+00  1.0000001305246486e+00 0.0000000000000000e+00 0.0000000000000000e+00  1.0000001305246486e+00 0.0000000000000000e+00 0.0000000000000000e+00  1.0000001305246486e+00 0.0000000000000000e+00 0.0000000000000000e+00  1.0000001305246486e+00 0.0000000000000000e+00 0.0000000000000000e+00  1.0000001305246486e+00 0.0000000000000000e+00 0.0000000000000000e+00  1.0000001305246486e+00 0.0000000000000000e+00 0.0000000000000000e+00  1.0000001305246486e+00 0.0000000000000000e+00 0.0000000000000000e+00  1.0000001305246486e+00 0.0000000000000000e+00 0.0000000000000000e+00  1.0000001305246486e+00 0.0000000000000000e+00 0.0000000000000000e+00  1.0421157383571871e+00 -9.3435612013193191e-03 0.0000000000000000e+00  1.0393838992560021e+00 -1.8940469805524645e-02 0.0000000000000000e+00  1.0375601953080680e+00 -2.9471747187075913e-02 0.0000000000000000e+00  1.0323442499786299e+00 -4.0700016342914515e-02 0.0000000000000000e+00  1.0272013969053337e+00 -5.6130719054779794e-02 0.0000000000000000e+00  1.0318931599473904e+00 -5.9376375448383853e-02 0.0000000000000000e+00  1.0362033648812685e+00 -6.2648402174540166e-02 0.0000000000000000e+00  1.0415481773562574e+00 -6.5559585910414525e-02 0.0000000000000000e+00  1.0471596037248732e+00 -6.8255950871276769e-02 0.0000000000000000e+00  1.0533999279454211e+00 -7.0462312891355516e-02 0.0000000000000000e+00  1.0602094478940798e+00 -7.2229363204412922e-02 0.0000000000000000e+00  1.0674479559024759e+00 -7.3242570353991565e-02 0.0000000000000000e+00  1.0751682548831458e+00 -7.3607092523230513e-02 0.0000000000000000e+00  1.0829673237383288e+00 -7.2975780731632328e-02 0.0000000000000000e+00  1.0910334155198718e+00 -7.1579532375797256e-02 0.0000000000000000e+00  1.0990545856038796e+00 -6.9289046306638860e-02 0.0000000000000000e+00  1.1070567141656473e+00 -6.5797924486668283e-02 0.0000000000000000e+00  1.1145519379008380e+00 -6.1238464661316959e-02 0.0000000000000000e+00  1.1215920523277050e+00 -5.5849347618315871e-02 0.0000000000000000e+00  1.1279985522374418e+00 -4.9529216430647983e-02 0.0000000000000000e+00  1.1334989530506583e+00 -4.2329901344511207e-02 0.0000000000000000e+00  1.1380786277880910e+00 -3.4446798915302564e-02 0.0000000000000000e+00  1.1415650366456191e+00 -2.6037257105198157e-02 0.0000000000000000e+00  1.1439276266088958e+00 -1.7016877257793356e-02 0.0000000000000000e+00  1.1450693626144617e+00 -7.9824857985880491e-03 0.0000000000000000e+00  1.1449606260483476e+00 1.3528600992033567e-03 0.0000000000000000e+00  1.1433843138946125e+00 1.0673160164520317e-02 0.0000000000000000e+00  1.1406896954090646e+00 1.9605156715016340e-02 0.0000000000000000e+00  1.1365417921621992e+00 2.8011001655604068e-02 0.0000000000000000e+00  1.1312128343692669e+00 3.5767663314479316e-02 0.0000000000000000e+00  1.1247058704938508e+00 4.2663236998895973e-02 0.0000000000000000e+00  1.1171604016054733e+00 4.8339267573979570e-02 0.0000000000000000e+00  1.1087636848864260e+00 5.2877283590481813e-02 0.0000000000000000e+00  1.0996799819725906e+00 5.6116421873591511e-02 0.0000000000000000e+00  1.0902425696062734e+00 5.7752002547343896e-02 0.0000000000000000e+00  1.0805894709994777e+00 5.7859