<?xml version="1.0"?>
<VTKFile type="UnstructuredGrid"  version="0.1"  >
<UnstructuredGrid>
<Piece  NumberOfPoints="10199" NumberOfCells="20110">
<Points>
<DataArray  type="Float64"  NumberOfComponents="3"  format="ascii">0 -5 0  8 -5 0  30 -5 0  40 -5 0  40 5 0  30 5 0  8 5 0  0 5 0  8 -2.5 0  15 -2.5 0  30 -2.5 0  30 2.5 0  15 2.5 0  8 2.5 0  10 0.5 0  10 -0.5 0  0 0 0  0.4210526315780956 -5 0  0.8421052631563433 -5 0  1.263157894734281 -5 0  1.684210526311999 -5 0  2.105263157889717 -5 0  2.526315789467435 -5 0  2.947368421045153 -5 0  3.368421052622872 -5 0  3.78947368420059 -5 0  4.210526315779479 -5 0  4.631578947359537 -5 0  5.052631578939595 -5 0  5.473684210519653 -5 0  5.89473684209971 -5 0  6.315789473679768 -5 0  6.736842105259826 -5 0  7.157894736839884 -5 0  7.578947368419942 -5 0  8.407407407405314 -5 0  8.814814814810628 -5 0  9.222222222215942 -5 0  9.629629629621256 -5 0  10.03703703702657 -5 0  10.44444444443188 -5 0  10.8518518518372 -5 0  11.25925925924251 -5 0  11.66666666664783 -5 0  12.07407407405314 -5 0  12.48148148145846 -5 0  12.88888888886377 -5 0  13.29629629626908 -5 0  13.7037037036744 -5 0  14.11111111107971 -5 0  14.51851851848502 -5 0  14.92592592589034 -5 0  15.33333333329565 -5 0  15.74074074070096 -5 0  16.14814814810754 -5 0  16.55555555551614 -5 0  16.96296296292474 -5 0  17.37037037033335 -5 0  17.77777777774195 -5 0  18.18518518515056 -5 0  18.59259259255916 -5 0  18.99999999996776 -5 0  19.40740740737636 -5 0  19.81481481478497 -5 0  20.22222222219357 -5 0  20.62962962960217 -5 0  21.03703703701077 -5 0  21.44444444441937 -5 0  21.85185185182797 -5 0  22.25925925923657 -5 0  22.66666666664518 -5 0  23.07407407405378 -5 0  23.48148148146238 -5 0  23.88888888887098 -5 0  24.29629629627958 -5 0  24.70370370368818 -5 0  25.11111111109678 -5 0  25.51851851850539 -5 0  25.92592592591399 -5 0  26.33333333332259 -5 0  26.74074074073119 -5 0  27.14814814813979 -5 0  27.55555555554839 -5 0  27.96296296295699 -5 0  28.3703703703656 -5 0  28.7777777777742 -5 0  29.1851851851828 -5 0  29.5925925925914 -5 0  30.41666666667852 -5 0  30.83333333335704 -5 0  31.25000000003556 -5 0  31.66666666671408 -5 0  32.08333333338936 -5 0  32.50000000005308 -5 0  32.9166666667168 -5 0  33.33333333338052 -5 0  33.75000000004424 -5 0  34.16666666670795 -5 0  34.58333333337167 -5 0  35.00000000003539 -5 0  35.41666666669911 -5 0  35.83333333336282 -5 0  36.25000000002654 -5 0  36.66666666669026 -5 0  37.08333333335398 -5 0  37.50000000001769 -5 0  37.91666666668141 -5 0  38.33333333334513 -5 0  38.75000000000885 -5 0  39.16666666667257 -5 0  39.58333333333628 -5 0  40 -4.583333333332821 0  40 -4.166666666665642 0  40 -3.74999999999855 0  40 -3.333333333333135 0  40 -2.916666666667806 0  40 -2.500000000002478 0  40 -2.083333333337148 0  40 -1.666666666671818 0  40 -1.250000000006488 0  40 -0.8333333333405228 0  40 -0.4166666666733416 0  40 -6.163070054299169e-12 0  40 0.4166666666610173 0  40 0.8333333333281976 0  40 1.249999999995378 0  40 1.666666666662558 0  40 2.083333333329739 0  40 2.499999999996919 0  40 2.916666666664099 0  40 3.33333333333128 0  40 3.74999999999846 0  40 4.166666666665641 0  40 4.583333333332821 0  39.58333333333628 5 0  39.16666666667256 5 0  38.75000000000885 5 0  38.33333333334513 5 0  37.91666666668141 5 0  37.50000000001769 5 0  37.08333333335398 5 0  36.66666666669025 5 0  36.25000000002654 5 0  35.83333333336282 5 0  35.41666666669911 5 0  35.00000000003539 5 0  34.58333333337167 5 0  34.16666666670795 5 0  33.75000000004424 5 0  33.33333333338052 5 0  32.9166666667168 5 0  32.50000000005308 5 0  32.08333333338936 5 0  31.66666666671408 5 0  31.25000000003556 5 0  30.83333333335704 5 0  30.41666666667852 5 0  29.59259259259259 5 0  29.18518518518519 5 0  28.77777777777778 5 0  28.37037037037037 5 0  27.96296296296296 5 0  27.55555555555556 5 0  27.14814814814815 5 0  26.74074074074074 5 0  26.33333333333333 5 0  25.92592592592593 5 0  25.51851851851852 5 0  25.11111111111111 5 0  24.7037037037037 5 0  24.2962962962963 5 0  23.88888888888889 5 0  23.48148148148148 5 0  23.07407407407408 5 0  22.66666666666667 5 0  22.25925925925926 5 0  21.85185185185185 5 0  21.44444444444445 5 0  21.03703703703704 5 0  20.62962962962963 5 0  20.22222222222222 5 0  19.81481481481482 5 0  19.40740740740741 5 0  19 5 0  18.5925925925926 5 0  18.18518518518519 5 0  17.77777777777778 5 0  17.37037037037037 5 0  16.96296296296296 5 0  16.55555555555556 5 0  16.14814814814815 5 0  15.74074074074074 5 0  15.33333333333333 5 0  14.92592592592593 5 0  14.51851851851852 5 0  14.11111111111111 5 0  13.70370370370371 5 0  13.2962962962963 5 0  12.88888888888889 5 0  12.48148148148148 5 0  12.07407407407408 5 0  11.66666666666667 5 0  11.25925925925926 5 0  10.85185185185185 5 0  10.44444444444445 5 0  10.03703703703704 5 0  9.629629629629633 5 0  9.222222222222221 5 0  8.814814814814817 5 0  8.407407407407408 5 0  7.5789473684193 5 0  7.157894736838599 5 0  6.73684210526082 5 0  6.315789473684795 5 0  5.894736842108769 5 0  5.473684210532742 5 0  5.052631578956715 5 0  4.631578947380689 5 0  4.210526315804662 5 0  3.789473684226299 5 0  3.368421052645599 5 0  2.947368421064898 5 0  2.526315789484198 5 0  2.105263157903499 5 0  1.6842105263228 5 0  1.2631578947421 5 0  0.8421052631613994 5 0  0.4210526315806993 5 0  0 4.545454545454545 0  0 4.09090909090909 0  0 3.636363636363634 0  0 3.18181818181818 0  0 2.727272727272726 0  0 2.272727272727271 0  0 1.818181818181817 0  0 1.363636363636363 0  0 0.9090909090909092 0  0 0.454545454545455 0  0 -0.4545454545450807 0  0 -0.9090909090895867 0  0 -1.363636363633713 0  0 -1.818181818177841 0  0 -2.272727272723127 0  0 -2.727272727269273 0  0 -3.181818181815419 0  0 -3.636363636361564 0  0 -4.090909090907709 0  0 -4.545454545453855 0  8 -4.499999999999999 0  8 -3.999999999999999 0  8 -3.499999999999999 0  8 -3 0  8.137254901963859 -2.5 0  8.274509803926303 -2.5 0  8.411764705886863 -2.5 0  8.549019607849138 -2.5 0  8.686274509809513 -2.5 0  8.82352941176989 -2.5 0  8.960784313730265 -2.5 0  9.098039215690642 -2.5 0  9.235294117651017 -2.5 0  9.372549019611395 -2.5 0  9.50980392157177 -2.5 0  9.647058823532147 -2.5 0  9.784313725492522 -2.5 0  9.921568627452897 -2.5 0  10.05882352941327 -2.5 0  10.19607843137365 -2.5 0  10.33333333333402 -2.5 0  10.4705882352944 -2.5 0  10.60784313725478 -2.5 0  10.74509803921515 -2.5 0  10.88235294117553 -2.5 0  11.0196078431359 -2.5 0  11.15686274509628 -2.5 0  11.29411764705665 -2.5 0  11.43137254901703 -2.5 0  11.56862745097915 -2.5 0  11.70588235294301 -2.5 0  11.84313725490686 -2.5 0  11.98039215687072 -2.5 0  12.11764705883209 -2.5 0  12.25490196079247 -2.5 0  12.39215686275285 -2.5 0  12.52941176471322 -2.5 0  12.6666666666736 -2.5 0  12.80392156863397 -2.5 0  12.94117647059435 -2.5 0  13.07843137255473 -2.5 0  13.2156862745151 -2.5 0  13.35294117647548 -2.5 0  13.49019607843586 -2.5 0  13.62745098039623 -2.5 0  13.76470588235661 -2.5 0  13.90196078431699 -2.5 0  14.03921568627736 -2.5 0  14.17647058823774 -2.5 0  14.31372549019812 -2.5 0  14.45098039215849 -2.5 0  14.58823529411887 -2.5 0  14.72549019607925 -2.5 0  14.86274509803962 -2.5 0  15.20270270270254 -2.5 0  15.40540540540509 -2.5 0  15.60810810810763 -2.5 0  15.81081081081017 -2.5 0  16.01351351351227 -2.5 0  16.21621621621265 -2.5 0  16.41891891891279 -2.5 0  16.62162162161294 -2.5 0  16.82432432431308 -2.5 0  17.02702702701322 -2.5 0  17.22972972971337 -2.5 0  17.43243243241351 -2.5 0  17.63513513511365 -2.5 0  17.83783783781379 -2.5 0  18.04054054051394 -2.5 0  18.24324324321408 -2.5 0  18.44594594591422 -2.5 0  18.64864864861436 -2.5 0  18.85135135131451 -2.5 0  19.05405405401465 -2.5 0  19.25675675671479 -2.5 0  19.45945945941494 -2.5 0  19.66216216211508 -2.5 0  19.86486486481522 -2.5 0  20.06756756751536 -2.5 0  20.27027027021551 -2.5 0  20.47297297291565 -2.5 0  20.6756756756158 -2.5 0  20.87837837831594 -2.5 0  21.08108108101608 -2.5 0  21.28378378371622 -2.5 0  21.48648648641637 -2.5 0  21.68918918911651 -2.5 0  21.89189189181666 -2.5 0  22.0945945945168 -2.5 0  22.29729729721694 -2.5 0  22.49999999991778 -2.5 0  22.70270270262203 -2.5 0  22.90540540532697 -2.5 0  23.10810810803191 -2.5 0  23.31081081073686 -2.5 0  23.5135135134418 -2.5 0  23.71621621614674 -2.5 0  23.91891891885169 -2.5 0  24.12162162155663 -2.5 0  24.32432432426158 -2.5 0  24.52702702696652 -2.5 0  24.72972972967146 -2.5 0  24.93243243237641 -2.5 0  25.13513513508135 -2.5 0  25.3378378377863 -2.5 0  25.54054054049124 -2.5 0  25.74324324319618 -2.5 0  25.94594594590112 -2.5 0  26.14864864860607 -2.5 0  26.35135135131101 -2.5 0  26.55405405401596 -2.5 0  26.7567567567209 -2.5 0  26.95945945942584 -2.5 0  27.16216216213079 -2.5 0  27.36486486483573 -2.5 0  27.56756756754068 -2.5 0  27.77027027024562 -2.5 0  27.97297297295056 -2.5 0  28.1756756756555 -2.5 0  28.37837837836045 -2.5 0  28.5810810810654 -2.5 0  28.78378378377034 -2.5 0  28.98648648647528 -2.5 0  29.18918918918023 -2.5 0  29.39189189188517 -2.5 0  29.59459459459011 -2.5 0  29.79729729729506 -2.5 0  30 -3.000000000000001 0  30 -3.500000000000001 0  30 -4.000000000000001 0  30 -4.5 0  8 4.499999999999999 0  8 3.999999999999999 0  8 3.499999999999999 0  8 3 0  8.137254901963859 2.5 0  8.274509803926303 2.5 0  8.411764705886863 2.5 0  8.549019607849138 2.5 0  8.686274509809513 2.5 0  8.82352941176989 2.5 0  8.960784313730265 2.5 0  9.098039215690642 2.5 0  9.235294117651017 2.5 0  9.372549019611395 2.5 0  9.50980392157177 2.5 0  9.647058823532147 2.5 0  9.784313725492522 2.5 0  9.921568627452897 2.5 0  10.05882352941327 2.5 0  10.19607843137365 2.5 0  10.33333333333402 2.5 0  10.4705882352944 2.5 0  10.60784313725478 2.5 0  10.74509803921515 2.5 0  10.88235294117553 2.5 0  11.0196078431359 2.5 0  11.15686274509628 2.5 0  11.29411764705665 2.5 0  11.43137254901703 2.5 0  11.56862745097915 2.5 0  11.70588235294301 2.5 0  11.84313725490686 2.5 0  11.98039215687072 2.5 0  12.11764705883209 2.5 0  12.25490196079247 2.5 0  1
[...]
<PointData  Vectors="f_17"> 
<DataArray  type="Float64"  Name="f_17"  NumberOfComponents="3" format="ascii">1.0000001351424701e+00 0.0000000000000000e+00 0.0000000000000000e+00  1.0491879581517778e+00 0.0000000000000000e+00 0.0000000000000000e+00  1.0564614909047556e+00 0.0000000000000000e+00 0.0000000000000000e+00  1.0193689183698866e+00 0.0000000000000000e+00 0.0000000000000000e+00  1.0180901927575694e+00 0.0000000000000000e+00 0.0000000000000000e+00  1.0490254511383570e+00 0.0000000000000000e+00 0.0000000000000000e+00  1.0488306622082229e+00 0.0000000000000000e+00 0.0000000000000000e+00  1.0000001351424701e+00 0.0000000000000000e+00 0.0000000000000000e+00  1.0214297082952446e+00 -6.0173871502257704e-02 0.0000000000000000e+00  1.0948250109873185e+00 3.7813254197719151e-02 0.0000000000000000e+00  1.0852533030869360e+00 1.5596414962242915e-03 0.0000000000000000e+00  1.0346915323099033e+00 -2.7907510712324217e-02 0.0000000000000000e+00  1.1915605301924006e+00 -2.3159380190793555e-02 0.0000000000000000e+00  1.0224072170228773e+00 6.0081964020382149e-02 0.0000000000000000e+00  0.0000000000000000e+00 0.0000000000000000e+00 0.0000000000000000e+00  0.0000000000000000e+00 0.0000000000000000e+00 0.0000000000000000e+00  1.0000001351424701e+00 0.0000000000000000e+00 0.0000000000000000e+00  9.9932194517356987e-01 0.0000000000000000e+00 0.0000000000000000e+00  9.9878641553991143e-01 0.0000000000000000e+00 0.0000000000000000e+00  1.0008160158259367e+00 0.0000000000000000e+00 0.0000000000000000e+00  1.0006585182442360e+00 0.0000000000000000e+00 0.0000000000000000e+00  1.0016290296646775e+00 0.0000000000000000e+00 0.0000000000000000e+00  1.0019684067258712e+00 0.0000000000000000e+00 0.0000000000000000e+00  1.0023014711567153e+00 0.0000000000000000e+00 0.0000000000000000e+00  1.0031835104678195e+00 0.0000000000000000e+00 0.0000000000000000e+00  1.0044870563032617e+00 0.0000000000000000e+00 0.0000000000000000e+00  1.0057628484140302e+00 0.0000000000000000e+00 0.0000000000000000e+00  1.0074171565983616e+00 0.0000000000000000e+00 0.0000000000000000e+00  1.0099056355221181e+00 0.0000000000000000e+00 0.0000000000000000e+00  1.0125918711114132e+00 0.0000000000000000e+00 0.0000000000000000e+00  1.0169769213232402e+00 0.0000000000000000e+00 0.0000000000000000e+00  1.0193615809648184e+00 0.0000000000000000e+00 0.0000000000000000e+00  1.0247649012477238e+00 0.0000000000000000e+00 0.0000000000000000e+00  1.0325488615912803e+00 0.0000000000000000e+00 0.0000000000000000e+00  1.0393419794494561e+00 0.0000000000000000e+00 0.0000000000000000e+00  1.0594656817341086e+00 0.0000000000000000e+00 0.0000000000000000e+00  1.0706936991742444e+00 0.0000000000000000e+00 0.0000000000000000e+00  1.0819726572990540e+00 0.0000000000000000e+00 0.0000000000000000e+00  1.0944130013644522e+00 0.0000000000000000e+00 0.0000000000000000e+00  1.1058028571295360e+00 0.0000000000000000e+00 0.0000000000000000e+00  1.1169615095286300e+00 0.0000000000000000e+00 0.0000000000000000e+00  1.1278124454902967e+00 0.0000000000000000e+00 0.0000000000000000e+00  1.1359071181145457e+00 0.0000000000000000e+00 0.0000000000000000e+00  1.1427648366109540e+00 0.0000000000000000e+00 0.0000000000000000e+00  1.1472616731604832e+00 0.0000000000000000e+00 0.0000000000000000e+00  1.1498570773995553e+00 0.0000000000000000e+00 0.0000000000000000e+00  1.1493365416404508e+00 0.0000000000000000e+00 0.0000000000000000e+00  1.1480400017887269e+00 0.0000000000000000e+00 0.0000000000000000e+00  1.1448584550006540e+00 0.0000000000000000e+00 0.0000000000000000e+00  1.1409602087706876e+00 0.0000000000000000e+00 0.0000000000000000e+00  1.1373037236332213e+00 0.0000000000000000e+00 0.0000000000000000e+00  1.1339110954149101e+00 0.0000000000000000e+00 0.0000000000000000e+00  1.1316136901061931e+00 0.0000000000000000e+00 0.0000000000000000e+00  1.1299751786851371e+00 0.0000000000000000e+00 0.0000000000000000e+00  1.1290372397736819e+00 0.0000000000000000e+00 0.0000000000000000e+00  1.1296531971247439e+00 0.0000000000000000e+00 0.0000000000000000e+00  1.1305066933746912e+00 0.0000000000000000e+00 0.0000000000000000e+00  1.1291526291550262e+00 0.0000000000000000e+00 0.0000000000000000e+00  1.1272697500029876e+00 0.0000000000000000e+00 0.0000000000000000e+00  1.1233706795224632e+00 0.0000000000000000e+00 0.0000000000000000e+00  1.1178088207440189e+00 0.0000000000000000e+00 0.0000000000000000e+00  1.1115240639850490e+00 0.0000000000000000e+00 0.0000000000000000e+00  1.1042425236748175e+00 0.0000000000000000e+00 0.0000000000000000e+00  1.0975749460045303e+00 0.0000000000000000e+00 0.0000000000000000e+00  1.0923613682411986e+00 0.0000000000000000e+00 0.0000000000000000e+00  1.0884653442346079e+00 0.0000000000000000e+00 0.0000000000000000e+00  1.0866117249943368e+00 0.0000000000000000e+00 0.0000000000000000e+00  1.0887550298814705e+00 0.0000000000000000e+00 0.0000000000000000e+00  1.0916847438813957e+00 0.0000000000000000e+00 0.0000000000000000e+00  1.0956037313239013e+00 0.0000000000000000e+00 0.0000000000000000e+00  1.1008514402866456e+00 0.0000000000000000e+00 0.0000000000000000e+00  1.1041831357616627e+00 0.0000000000000000e+00 0.0000000000000000e+00  1.1055937306715884e+00 0.0000000000000000e+00 0.0000000000000000e+00  1.1060959299146609e+00 0.0000000000000000e+00 0.0000000000000000e+00  1.1033049786584763e+00 0.0000000000000000e+00 0.0000000000000000e+00  1.0981237081590496e+00 0.0000000000000000e+00 0.0000000000000000e+00  1.0922487891572259e+00 0.0000000000000000e+00 0.0000000000000000e+00  1.0849014961292489e+00 0.0000000000000000e+00 0.0000000000000000e+00  1.0774946069248816e+00 0.0000000000000000e+00 0.0000000000000000e+00  1.0713609351976956e+00 0.0000000000000000e+00 0.0000000000000000e+00  1.0654130139557549e+00 0.0000000000000000e+00 0.0000000000000000e+00  1.0605695724894479e+00 0.0000000000000000e+00 0.0000000000000000e+00  1.0596073208775179e+00 0.0000000000000000e+00 0.0000000000000000e+00  1.0579020176612643e+00 0.0000000000000000e+00 0.0000000000000000e+00  1.0555699238190914e+00 0.0000000000000000e+00 0.0000000000000000e+00  1.0550094080960706e+00 0.0000000000000000e+00 0.0000000000000000e+00  1.0561991330850804e+00 0.0000000000000000e+00 0.0000000000000000e+00  1.0563711099962267e+00 0.0000000000000000e+00 0.0000000000000000e+00  1.0555969656597672e+00 0.0000000000000000e+00 0.0000000000000000e+00  1.0532100394206176e+00 0.0000000000000000e+00 0.0000000000000000e+00  1.0501857541271666e+00 0.0000000000000000e+00 0.0000000000000000e+00  1.0476075151272117e+00 0.0000000000000000e+00 0.0000000000000000e+00  1.0447094331547033e+00 0.0000000000000000e+00 0.0000000000000000e+00  1.0413882104815675e+00 0.0000000000000000e+00 0.0000000000000000e+00  1.0382229759448882e+00 0.0000000000000000e+00 0.0000000000000000e+00  1.0356262851099167e+00 0.0000000000000000e+00 0.0000000000000000e+00  1.0333892759578305e+00 0.0000000000000000e+00 0.0000000000000000e+00  1.0310922030675191e+00 0.0000000000000000e+00 0.0000000000000000e+00  1.0296750373183565e+00 0.0000000000000000e+00 0.0000000000000000e+00  1.0283860249131178e+00 0.0000000000000000e+00 0.0000000000000000e+00  1.0270968224756298e+00 0.0000000000000000e+00 0.0000000000000000e+00  1.0264821230410826e+00 0.0000000000000000e+00 0.0000000000000000e+00  1.0258964351176625e+00 0.0000000000000000e+00 0.0000000000000000e+00  1.0258491797802054e+00 0.0000000000000000e+00 0.0000000000000000e+00  1.0248448991360517e+00 0.0000000000000000e+00 0.0000000000000000e+00  1.0243247467172854e+00 0.0000000000000000e+00 0.0000000000000000e+00  1.0234048578448984e+00 0.0000000000000000e+00 0.0000000000000000e+00  1.0230838157970614e+00 0.0000000000000000e+00 0.0000000000000000e+00  1.0220232410473851e+00 0.0000000000000000e+00 0.0000000000000000e+00  1.0214778477297035e+00 0.0000000000000000e+00 0.0000000000000000e+00  1.0200048323307416e+00 0.0000000000000000e+00 0.0000000000000000e+00  1.0200364605762882e+00 1.0417715764406794e-03 0.0000000000000000e+00  1.0213991121374120e+00 1.9870418695929529e-03 0.0000000000000000e+00  1.0235418321126244e+00 3.0506517537461655e-03 0.0000000000000000e+00  1.0244608875807812e+00 4.2573928745217940e-03 0.0000000000000000e+00  1.0258578590495973e+00 5.4479340289305869e-03 0.0000000000000000e+00  1.0256391483207081e+00 6.8308042904131321e-03 0.0000000000000000e+00  1.0236610918567961e+00 8.2942130127294476e-03 0.0000000000000000e+00  1.0170040820064781e+00 9.6874783597694671e-03 0.0000000000000000e+00  9.9809693219339479e-01 1.0517513614033849e-02 0.0000000000000000e+00  9.6267675336492775e-01 1.0065499559962105e-02 0.0000000000000000e+00  9.2090331462762343e-01 6.8772480239199041e-03 0.0000000000000000e+00  8.9750438675094768e-01 2.7358772514039903e-03 0.0000000000000000e+00  9.1164928040552196e-01 -1.7173935075617394e-03 0.0000000000000000e+00  9.5258873815440415e-01 -4.0055722923180680e-03 0.0000000000000000e+00  9.9244238150845232e-01 -4.1463742127037431e-03 0.0000000000000000e+00  1.0148104169721923e+00 -3.8006851228408666e-03 0.0000000000000000e+00  1.0218618883643376e+00 -4.1044193089950897e-03 0.0000000000000000e+00  1.0233614697355031e+00 -3.7565114583069464e-03 0.0000000000000000e+00  1.0227439673338576e+00 -3.2291683842590770e-03 0.0000000000000000e+00  1.0224511926563011e+00 -2.7270426902399436e-03 0.0000000000000000e+00  1.0210445539170248e+00 -2.0852326813608855e-03 0.0000000000000000e+00  1.0202076315987791e+00 -1.4346614920335958e-03 0.0000000000000000e+00  1.0189245108935863e+00 -7.8989667303186711e-04 0.0000000000000000e+00  1.0186407742880679e+00 0.0000000000000000e+00 0.0000000000000000e+00  1.0194049155300946e+00 0.0000000000000000e+00 0.0000000000000000e+00  1.0202230493279751e+00 0.0000000000000000e+00 0.0000000000000000e+00  1.0214399761095689e+00 0.0000000000000000e+00 0.0000000000000000e+00  1.0221466264530084e+00 0.0000000000000000e+00 0.0000000000000000e+00  1.0234765913466641e+00 0.0000000000000000e+00 0.0000000000000000e+00  1.0250904932662916e+00 0.0000000000000000e+00 0.0000000000000000e+00  1.0269354695685184e+00 0.0000000000000000e+00 0.0000000000000000e+00  1.0281681046587963e+00 0.0000000000000000e+00 0.0000000000000000e+00  1.0297510090978590e+00 0.0000000000000000e+00 0.0000000000000000e+00  1.0311671557545365e+00 0.0000000000000000e+00 0.0000000000000000e+00  1.0323762170258644e+00 0.0000000000000000e+00 0.0000000000000000e+00  1.0334899139326572e+00 0.0000000000000000e+00 0.0000000000000000e+00  1.0351124290320675e+00 0.0000000000000000e+00 0.0000000000000000e+00  1.0357128559621056e+00 0.0000000000000000e+00 0.0000000000000000e+00  1.0370428261654108e+00 0.0000000000000000e+00 0.0000000000000000e+00  1.0369225553195949e+00 0.0000000000000000e+00 0.0000000000000000e+00  1.0373049206434390e+00 0.0000000000000000e+00 0.0000000000000000e+00  1.0375625052505288e+00 0.0000000000000000e+00 0.0000000000000000e+00  1.0387225537618114e+00 0.0000000000000000e+00 0.0000000000000000e+00  1.0401696754883063e+00 0.0000000000000000e+00 0.0000000000000000e+00  1.0419604779430363e+00 0.0000000000000000e+00 0.0000000000000000e+00  1.0451512064055157e+00 0.0000000000000000e+00 0.0000000000000000e+00  1.0529311497355252e+00 0.0000000000000000e+00 0.0000000000000000e+00  1.0582667006155313e+00 0.0000000000000000e+00 0.0000000000000000e+00  1.0629121450830554e+00 0.0000000000000000e+00 0.0000000000000000e+00  1.0691129286247321e+00 0.0000000000000000e+00 0.0000000000000000e+00  1.0757610407142120e+00 0.0000000000000000e+00 0.0000000000000000e+00  1.0802624675633616e+00 0.0000000000000000e+00 0.0000000000000000e+00  1.0815659525856893e+00 0.0000000000000000e+00 0.0000000000000000e+00  1.0835722977652180e+00 0.0000000000000000e+00 0.0000000000000000e+00  1.0837471328993851e+00 0.0000000000000000e+00 0.0000000000000000e+00  1.0817315246941210e+00 0.0000000000000000e+00 0.0000000000000000e+00  1.0795138936022850e+00 0.0000000000000000e+00 0.0000000000000000e+00  1.0771628863736005e+00 0.0000000000000000e+00 0.0000000000000000e+00  1.0747580422760612e+00 0.0000000000000000e+00 0.0000000000000000e+00  1.0744421124981347e+00 0.0000000000000000e+00 0.0000000000000000e+00  1.0759024428160167e+00 0.0000000000000000e+00 0.0000000000000000e+00  1.0783677796287996e+00 0.0000000000000000e+00 0.0000000000000000e+00  1.0839873753220857e+00 0.0000000000000000e+00 0.0000000000000000e+00  1.0908067917936357e+00 0.0000000000000000e+00 0.0000000000000000e+00  1.0975105086685104e+00 0.0000000000000000e+00 0.0000000000000000e+00  1.1048779607935479e+00 0.0000000000000000e+00 0.0000000000000000e+00  1.1109587447278608e+00 0.0000000000000000e+00 0.0000000000000000e+00  1.1141661028305538e+00 0.0000000000000000e+00 0.0000000000000000e+00  1.1164602070378595e+00 0.0000000000000000e+00 0.0000000000000000e+00  1.1163021463844072e+00 0.0000000000000000e+00 0.0000000000000000e+00  1.1132905788046183e+00 0.0000000000000000e+00 0.0000000000000000e+00  1.1098203854230646e+00 0.0000000000000000e+00 0.0000000000000000e+00  1.1060685252930842e+00 0.0000000000000000e+00 0.0000000000000000e+00  1.1032620059471983e+00 0.0000000000000000e+00 0.0000000000000000e+00  1.1023963150523850e+00 0.0000000000000000e+00 0.0000000000000000e+00  1.1039010941979979e+00 0.0000000000000000e+00 0.0000000000000000e+00  1.1072865761990325e+00 0.0000000000000000e+00 0.0000000000000000e+00  1.1134216954571321e+00 0.0000000000000000e+00 0.0000000000000000e+00  1.1193361599110070e+00 0.0000000000000000e+00 0.0000000000000000e+00  1.1264148941651342e+00 0.0000000000000000e+00 0.0000000000000000e+00  1.1337896861421941e+00 0.0000000000000000e+00 0.0000000000000000e+00  1.1402964834226748e+00 0.0000000000000000e+00 0.0000000000000000e+00  1.1448444297150973e+00 0.0000000000000000e+00 0.0000000000000000e+00  1.1476326341587915e+00 0.0000000000000000e+00 0.0000000000000000e+00  1.1494146538030419e+00 0.0000000000000000e+00 0.0000000000000000e+00  1.1507874259572832e+00 0.0000000000000000e+00 0.0000000000000000e+00  1.1504719912036179e+00 0.0000000000000000e+00 0.0000000000000000e+00  1.1487801062163565e+00 0.0000000000000000e+00 0.0000000000000000e+00  1.1475096394226094e+00 0.0000000000000000e+00 0.0000000000000000e+00  1.1433812252024000e+00 0.0000000000000000e+00 0.0000000000000000e+00  1.1387780483853054e+00 0.0000000000000000e+00 0.0000000000000000e+00  1.1322935689473492e+00 0.0000000000000000e+00 0.0000000000000000e+00  1.1237458051641955e+00 0.0000000000000000e+00 0.0000000000000000e+00  1.1139985321306254e+00 0.0000000000000000e+00 0.0000000000000000e+00  1.1035049907242134e+00 0.0000000000000000e+00 0.0000000000000000e+00  1.0924807580155687e+00 0.0000000000000000e+00 0.0000000000000000e+00  1.0804245432363124e+00 0.0000000000000000e+00 0.0000000000000000e+00  1.0697298685562369e+00 0.0000000000000000e+00 0.0000000000000000e+00  1.0588464311850321e+00 0.0000000000000000e+00 0.0000000000000000e+00  1.0393515278654157e+00 0.0000000000000000e+00 0.0000000000000000e+00  1.0312951105448598e+00 0.0000000000000000e+00 0.0000000000000000e+00  1.0250029503161633e+00 0.0000000000000000e+00 0.0000000000000000e+00  1.0193719162195385e+00 0.0000000000000000e+00 0.0000000000000000e+00  1.0148998386309220e+00 0.0000000000000000e+00 0.0000000000000000e+00  1.0113594551818641e+00 0.0000000000000000e+00 0.0000000000000000e+00  1.0086402366197107e+00 0.0000000000000000e+00 0.0000000000000000e+00  1.0060986387214801e+00 0.0000000000000000e+00 0.0000000000000000e+00  1.0043369461494227e+00 0.0000000000000000e+00 0.0000000000000000e+00  1.0031005625885834e+00 0.0000000000000000e+00 0.0000000000000000e+00  1.0017525976897692e+00 0.0000000000000000e+00 0.0000000000000000e+00  1.0014908186353497e+00 0.0000000000000000e+00 0.0000000000000000e+00  1.0003670119222676e+00 0.0000000000000000e+00 0.0000000000000000e+00  1.0002911022321357e+00 0.0000000000000000e+00 0.0000000000000000e+00  9.9985354499550305e-01 0.0000000000000000e+00 0.0000000000000000e+00  1.0005094910974777e+00 0.0000000000000000e+00 0.0000000000000000e+00  1.0002575863981296e+00 0.0000000000000000e+00 0.0000000000000000e+00  9.9979553390067311e-01 0.0000000000000000e+00 0.0000000000000000e+00  1.0000001351424701e+00 0.0000000000000000e+00 0.0000000000000000e+00  1.0000001351424701e+00 0.0000000000000000e+00 0.0000000000000000e+00  1.0000001351424701e+00 0.0000000000000000e+00 0.0000000000000000e+00  1.0000001351424701e+00 0.0000000000000000e+00 0.0000000000000000e+00  1.0000001351424701e+00 0.0000000000000000e+00 0.0000000000000000e+00  1.0000001351424701e+00 0.0000000000000000e+00 0.0000000000000000e+00  1.0000001351424701e+00 0.0000000000000000e+00 0.0000000000000000e+00  1.0000001351424701e+00 0.0000000000000000e+00 0.0000000000000000e+00  1.0000001351424701e+00 0.0000000000000000e+00 0.0000000000000000e+00  1.0000001351424701e+00 0.0000000000000000e+00 0.0000000000000000e+00  1.0000001351424701e+00 0.0000000000000000e+00 0.0000000000000000e+00  1.0000001351424701e+00 0.0000000000000000e+00 0.0000000000000000e+00  1.0000001351424701e+00 0.0000000000000000e+00 0.0000000000000000e+00  1.0000001351424701e+00 0.0000000000000000e+00 0.0000000000000000e+00  1.0000001351424701e+00 0.0000000000000000e+00 0.0000000000000000e+00  1.0000001351424701e+00 0.0000000000000000e+00 0.0000000000000000e+00  1.0000001351424701e+00 0.0000000000000000e+00 0.0000000000000000e+00  1.0000001351424701e+00 0.0000000000000000e+00 0.0000000000000000e+00  1.0000001351424701e+00 0.0000000000000000e+00 0.0000000000000000e+00  1.0000001351424701e+00 0.0000000000000000e+00 0.0000000000000000e+00  1.0482855037129308e+00 -1.1881352195811540e-02 0.0000000000000000e+00  1.0443040414531324e+00 -2.3763611016420872e-02 0.0000000000000000e+00  1.0404339707429999e+00 -3.5946077481730766e-02 0.0000000000000000e+00  1.0325322714653264e+00 -4.8296981522256900e-02 0.0000000000000000e+00  1.0241611020774095e+00 -6.4737348980876089e-02 0.0000000000000000e+00  1.0287395685532468e+00 -6.8975595804793496e-02 0.0000000000000000e+00  1.0329097045479285e+00 -7.3359598899182477e-02 0.0000000000000000e+00  1.0381439092610292e+00 -7.7519198343998660e-02 0.0000000000000000e+00  1.0436724745486503e+00 -8.1609675643221552e-02 0.0000000000000000e+00  1.0498616644973171e+00 -8.5385114451418775e-02 0.0000000000000000e+00  1.0566708463804564e+00 -8.8894028640760570e-02 0.0000000000000000e+00  1.0639914852718577e+00 -9.1838404778905952e-02 0.0000000000000000e+00  1.0718608578422004e+00 -9.4360921747708451e-02 0.0000000000000000e+00  1.0799468591179040e+00 -9.6113267647363707e-02 0.0000000000000000e+00  1.0884299320591293e+00 -9.7331368017619380e-02 0.0000000000000000e+00  1.0970723667373179e+00 -9.7874751641280122e-02 0.0000000000000000e+00  1.1058794700343266e+00 -9.7497255278079509e-02 0.0000000000000000e+00  1.1144564892534916e+00 -9.6332929401550138e-02 0.0000000000000000e+00  1.1229078940782933e+00 -9.4560214851986499e-02 0.0000000000000000e+00  1.1310858699762270e+00 -9.2102435823637196e-02 0.0000000000000000e+00  1.1388005609979992e+00 -8.8994793550863663e-02 0.0000000000000000e+00  1.1461108271162108e+00 -8.5393522918942005e-02 0.0000000000000000e+00  1.1529040033065761e+00 -8.1390859121952167e-02 0.0000000000000000e+00  1.1592423380045214e+00 -7.6924416823055716e-02 0.0000000000000000e+00  1.1650888339134777e+00 -7.2344333057069887e-02 0.0000000000000000e+00  1.1704832136176406e+00 -6.7432017449223433e-02 0.0000000000000000e+00  1.1753425109830387e+00 -6.2306562643855833e-02 0.0000000000000000e+00  1.1799030828151365e+00 -5.7092128511661108e-02 0.0000000000000000e+00  1.1839774999533421e+00 -5.1761169604196355e-02 0.0000000000000000e+00  1.1877064549491854e+00 -4.6273515652859573e-02 0.0000000000000000e+00  1.1910426842815360e+00 -4.0625860532194878e-02 0.0000000000000000e+00  1.1939883761622798e+00 -3.4842768071495001e-02 0.0000000000000000e+00  1.1965780709892182e+00 -2.8780017324707811e-02 0.0000000000000000e+00  1.1987173695214282e+00 -2.2473215862872618e-02 0.0000000000000000e+00  1.2003589440446087e+00 -1.5932998338469340e-02 0.0000000000000000e+00  1.2014569622085025e+00 -9.1639258