<?xml version="1.0"?>
<VTKFile type="UnstructuredGrid"  version="0.1"  >
<UnstructuredGrid>
<Piece  NumberOfPoints="10199" NumberOfCells="20110">
<Points>
<DataArray  type="Float64"  NumberOfComponents="3"  format="ascii">0 -5 0  8 -5 0  30 -5 0  40 -5 0  40 5 0  30 5 0  8 5 0  0 5 0  8 -2.5 0  15 -2.5 0  30 -2.5 0  30 2.5 0  15 2.5 0  8 2.5 0  10 0.5 0  10 -0.5 0  0 0 0  0.4210526315780956 -5 0  0.8421052631563433 -5 0  1.263157894734281 -5 0  1.684210526311999 -5 0  2.105263157889717 -5 0  2.526315789467435 -5 0  2.947368421045153 -5 0  3.368421052622872 -5 0  3.78947368420059 -5 0  4.210526315779479 -5 0  4.631578947359537 -5 0  5.052631578939595 -5 0  5.473684210519653 -5 0  5.89473684209971 -5 0  6.315789473679768 -5 0  6.736842105259826 -5 0  7.157894736839884 -5 0  7.578947368419942 -5 0  8.407407407405314 -5 0  8.814814814810628 -5 0  9.222222222215942 -5 0  9.629629629621256 -5 0  10.03703703702657 -5 0  10.44444444443188 -5 0  10.8518518518372 -5 0  11.25925925924251 -5 0  11.66666666664783 -5 0  12.07407407405314 -5 0  12.48148148145846 -5 0  12.88888888886377 -5 0  13.29629629626908 -5 0  13.7037037036744 -5 0  14.11111111107971 -5 0  14.51851851848502 -5 0  14.92592592589034 -5 0  15.33333333329565 -5 0  15.74074074070096 -5 0  16.14814814810754 -5 0  16.55555555551614 -5 0  16.96296296292474 -5 0  17.37037037033335 -5 0  17.77777777774195 -5 0  18.18518518515056 -5 0  18.59259259255916 -5 0  18.99999999996776 -5 0  19.40740740737636 -5 0  19.81481481478497 -5 0  20.22222222219357 -5 0  20.62962962960217 -5 0  21.03703703701077 -5 0  21.44444444441937 -5 0  21.85185185182797 -5 0  22.25925925923657 -5 0  22.66666666664518 -5 0  23.07407407405378 -5 0  23.48148148146238 -5 0  23.88888888887098 -5 0  24.29629629627958 -5 0  24.70370370368818 -5 0  25.11111111109678 -5 0  25.51851851850539 -5 0  25.92592592591399 -5 0  26.33333333332259 -5 0  26.74074074073119 -5 0  27.14814814813979 -5 0  27.55555555554839 -5 0  27.96296296295699 -5 0  28.3703703703656 -5 0  28.7777777777742 -5 0  29.1851851851828 -5 0  29.5925925925914 -5 0  30.41666666667852 -5 0  30.83333333335704 -5 0  31.25000000003556 -5 0  31.66666666671408 -5 0  32.08333333338936 -5 0  32.50000000005308 -5 0  32.9166666667168 -5 0  33.33333333338052 -5 0  33.75000000004424 -5 0  34.16666666670795 -5 0  34.58333333337167 -5 0  35.00000000003539 -5 0  35.41666666669911 -5 0  35.83333333336282 -5 0  36.25000000002654 -5 0  36.66666666669026 -5 0  37.08333333335398 -5 0  37.50000000001769 -5 0  37.91666666668141 -5 0  38.33333333334513 -5 0  38.75000000000885 -5 0  39.16666666667257 -5 0  39.58333333333628 -5 0  40 -4.583333333332821 0  40 -4.166666666665642 0  40 -3.74999999999855 0  40 -3.333333333333135 0  40 -2.916666666667806 0  40 -2.500000000002478 0  40 -2.083333333337148 0  40 -1.666666666671818 0  40 -1.250000000006488 0  40 -0.8333333333405228 0  40 -0.4166666666733416 0  40 -6.163070054299169e-12 0  40 0.4166666666610173 0  40 0.8333333333281976 0  40 1.249999999995378 0  40 1.666666666662558 0  40 2.083333333329739 0  40 2.499999999996919 0  40 2.916666666664099 0  40 3.33333333333128 0  40 3.74999999999846 0  40 4.166666666665641 0  40 4.583333333332821 0  39.58333333333628 5 0  39.16666666667256 5 0  38.75000000000885 5 0  38.33333333334513 5 0  37.91666666668141 5 0  37.50000000001769 5 0  37.08333333335398 5 0  36.66666666669025 5 0  36.25000000002654 5 0  35.83333333336282 5 0  35.41666666669911 5 0  35.00000000003539 5 0  34.58333333337167 5 0  34.16666666670795 5 0  33.75000000004424 5 0  33.33333333338052 5 0  32.9166666667168 5 0  32.50000000005308 5 0  32.08333333338936 5 0  31.66666666671408 5 0  31.25000000003556 5 0  30.83333333335704 5 0  30.41666666667852 5 0  29.59259259259259 5 0  29.18518518518519 5 0  28.77777777777778 5 0  28.37037037037037 5 0  27.96296296296296 5 0  27.55555555555556 5 0  27.14814814814815 5 0  26.74074074074074 5 0  26.33333333333333 5 0  25.92592592592593 5 0  25.51851851851852 5 0  25.11111111111111 5 0  24.7037037037037 5 0  24.2962962962963 5 0  23.88888888888889 5 0  23.48148148148148 5 0  23.07407407407408 5 0  22.66666666666667 5 0  22.25925925925926 5 0  21.85185185185185 5 0  21.44444444444445 5 0  21.03703703703704 5 0  20.62962962962963 5 0  20.22222222222222 5 0  19.81481481481482 5 0  19.40740740740741 5 0  19 5 0  18.5925925925926 5 0  18.18518518518519 5 0  17.77777777777778 5 0  17.37037037037037 5 0  16.96296296296296 5 0  16.55555555555556 5 0  16.14814814814815 5 0  15.74074074074074 5 0  15.33333333333333 5 0  14.92592592592593 5 0  14.51851851851852 5 0  14.11111111111111 5 0  13.70370370370371 5 0  13.2962962962963 5 0  12.88888888888889 5 0  12.48148148148148 5 0  12.07407407407408 5 0  11.66666666666667 5 0  11.25925925925926 5 0  10.85185185185185 5 0  10.44444444444445 5 0  10.03703703703704 5 0  9.629629629629633 5 0  9.222222222222221 5 0  8.814814814814817 5 0  8.407407407407408 5 0  7.5789473684193 5 0  7.157894736838599 5 0  6.73684210526082 5 0  6.315789473684795 5 0  5.894736842108769 5 0  5.473684210532742 5 0  5.052631578956715 5 0  4.631578947380689 5 0  4.210526315804662 5 0  3.789473684226299 5 0  3.368421052645599 5 0  2.947368421064898 5 0  2.526315789484198 5 0  2.105263157903499 5 0  1.6842105263228 5 0  1.2631578947421 5 0  0.8421052631613994 5 0  0.4210526315806993 5 0  0 4.545454545454545 0  0 4.09090909090909 0  0 3.636363636363634 0  0 3.18181818181818 0  0 2.727272727272726 0  0 2.272727272727271 0  0 1.818181818181817 0  0 1.363636363636363 0  0 0.9090909090909092 0  0 0.454545454545455 0  0 -0.4545454545450807 0  0 -0.9090909090895867 0  0 -1.363636363633713 0  0 -1.818181818177841 0  0 -2.272727272723127 0  0 -2.727272727269273 0  0 -3.181818181815419 0  0 -3.636363636361564 0  0 -4.090909090907709 0  0 -4.545454545453855 0  8 -4.499999999999999 0  8 -3.999999999999999 0  8 -3.499999999999999 0  8 -3 0  8.137254901963859 -2.5 0  8.274509803926303 -2.5 0  8.411764705886863 -2.5 0  8.549019607849138 -2.5 0  8.686274509809513 -2.5 0  8.82352941176989 -2.5 0  8.960784313730265 -2.5 0  9.098039215690642 -2.5 0  9.235294117651017 -2.5 0  9.372549019611395 -2.5 0  9.50980392157177 -2.5 0  9.647058823532147 -2.5 0  9.784313725492522 -2.5 0  9.921568627452897 -2.5 0  10.05882352941327 -2.5 0  10.19607843137365 -2.5 0  10.33333333333402 -2.5 0  10.4705882352944 -2.5 0  10.60784313725478 -2.5 0  10.74509803921515 -2.5 0  10.88235294117553 -2.5 0  11.0196078431359 -2.5 0  11.15686274509628 -2.5 0  11.29411764705665 -2.5 0  11.43137254901703 -2.5 0  11.56862745097915 -2.5 0  11.70588235294301 -2.5 0  11.84313725490686 -2.5 0  11.98039215687072 -2.5 0  12.11764705883209 -2.5 0  12.25490196079247 -2.5 0  12.39215686275285 -2.5 0  12.52941176471322 -2.5 0  12.6666666666736 -2.5 0  12.80392156863397 -2.5 0  12.94117647059435 -2.5 0  13.07843137255473 -2.5 0  13.2156862745151 -2.5 0  13.35294117647548 -2.5 0  13.49019607843586 -2.5 0  13.62745098039623 -2.5 0  13.76470588235661 -2.5 0  13.90196078431699 -2.5 0  14.03921568627736 -2.5 0  14.17647058823774 -2.5 0  14.31372549019812 -2.5 0  14.45098039215849 -2.5 0  14.58823529411887 -2.5 0  14.72549019607925 -2.5 0  14.86274509803962 -2.5 0  15.20270270270254 -2.5 0  15.40540540540509 -2.5 0  15.60810810810763 -2.5 0  15.81081081081017 -2.5 0  16.01351351351227 -2.5 0  16.21621621621265 -2.5 0  16.41891891891279 -2.5 0  16.62162162161294 -2.5 0  16.82432432431308 -2.5 0  17.02702702701322 -2.5 0  17.22972972971337 -2.5 0  17.43243243241351 -2.5 0  17.63513513511365 -2.5 0  17.83783783781379 -2.5 0  18.04054054051394 -2.5 0  18.24324324321408 -2.5 0  18.44594594591422 -2.5 0  18.64864864861436 -2.5 0  18.85135135131451 -2.5 0  19.05405405401465 -2.5 0  19.25675675671479 -2.5 0  19.45945945941494 -2.5 0  19.66216216211508 -2.5 0  19.86486486481522 -2.5 0  20.06756756751536 -2.5 0  20.27027027021551 -2.5 0  20.47297297291565 -2.5 0  20.6756756756158 -2.5 0  20.87837837831594 -2.5 0  21.08108108101608 -2.5 0  21.28378378371622 -2.5 0  21.48648648641637 -2.5 0  21.68918918911651 -2.5 0  21.89189189181666 -2.5 0  22.0945945945168 -2.5 0  22.29729729721694 -2.5 0  22.49999999991778 -2.5 0  22.70270270262203 -2.5 0  22.90540540532697 -2.5 0  23.10810810803191 -2.5 0  23.31081081073686 -2.5 0  23.5135135134418 -2.5 0  23.71621621614674 -2.5 0  23.91891891885169 -2.5 0  24.12162162155663 -2.5 0  24.32432432426158 -2.5 0  24.52702702696652 -2.5 0  24.72972972967146 -2.5 0  24.93243243237641 -2.5 0  25.13513513508135 -2.5 0  25.3378378377863 -2.5 0  25.54054054049124 -2.5 0  25.74324324319618 -2.5 0  25.94594594590112 -2.5 0  26.14864864860607 -2.5 0  26.35135135131101 -2.5 0  26.55405405401596 -2.5 0  26.7567567567209 -2.5 0  26.95945945942584 -2.5 0  27.16216216213079 -2.5 0  27.36486486483573 -2.5 0  27.56756756754068 -2.5 0  27.77027027024562 -2.5 0  27.97297297295056 -2.5 0  28.1756756756555 -2.5 0  28.37837837836045 -2.5 0  28.5810810810654 -2.5 0  28.78378378377034 -2.5 0  28.98648648647528 -2.5 0  29.18918918918023 -2.5 0  29.39189189188517 -2.5 0  29.59459459459011 -2.5 0  29.79729729729506 -2.5 0  30 -3.000000000000001 0  30 -3.500000000000001 0  30 -4.000000000000001 0  30 -4.5 0  8 4.499999999999999 0  8 3.999999999999999 0  8 3.499999999999999 0  8 3 0  8.137254901963859 2.5 0  8.274509803926303 2.5 0  8.411764705886863 2.5 0  8.549019607849138 2.5 0  8.686274509809513 2.5 0  8.82352941176989 2.5 0  8.960784313730265 2.5 0  9.098039215690642 2.5 0  9.235294117651017 2.5 0  9.372549019611395 2.5 0  9.50980392157177 2.5 0  9.647058823532147 2.5 0  9.784313725492522 2.5 0  9.921568627452897 2.5 0  10.05882352941327 2.5 0  10.19607843137365 2.5 0  10.33333333333402 2.5 0  10.4705882352944 2.5 0  10.60784313725478 2.5 0  10.74509803921515 2.5 0  10.88235294117553 2.5 0  11.0196078431359 2.5 0  11.15686274509628 2.5 0  11.29411764705665 2.5 0  11.43137254901703 2.5 0  11.56862745097915 2.5 0  11.70588235294301 2.5 0  11.84313725490686 2.5 0  11.98039215687072 2.5 0  12.11764705883209 2.5 0  12.25490196079247 2.5 0  1
[...]
<PointData  Vectors="f_17"> 
<DataArray  type="Float64"  Name="f_17"  NumberOfComponents="3" format="ascii">1.0000001295800756e+00 0.0000000000000000e+00 0.0000000000000000e+00  1.0345365201242971e+00 0.0000000000000000e+00 0.0000000000000000e+00  9.9856309796531717e-01 0.0000000000000000e+00 0.0000000000000000e+00  1.0001628823689031e+00 0.0000000000000000e+00 0.0000000000000000e+00  9.9994397662239209e-01 0.0000000000000000e+00 0.0000000000000000e+00  9.9871287359764527e-01 0.0000000000000000e+00 0.0000000000000000e+00  1.0349983568699963e+00 0.0000000000000000e+00 0.0000000000000000e+00  1.0000001295800756e+00 0.0000000000000000e+00 0.0000000000000000e+00  1.0209934623965060e+00 -4.4038689802607771e-02 0.0000000000000000e+00  1.0029881812208465e+00 1.7953678020994915e-02 0.0000000000000000e+00  1.0004089938654388e+00 -1.4361290995239429e-06 0.0000000000000000e+00  1.0001280291146399e+00 -7.8209556480932321e-05 0.0000000000000000e+00  1.0029394700373540e+00 -1.7906524548631869e-02 0.0000000000000000e+00  1.0207802740987717e+00 4.3992608056865376e-02 0.0000000000000000e+00  0.0000000000000000e+00 0.0000000000000000e+00 0.0000000000000000e+00  0.0000000000000000e+00 0.0000000000000000e+00 0.0000000000000000e+00  1.0000001295800756e+00 0.0000000000000000e+00 0.0000000000000000e+00  9.9929364721484559e-01 0.0000000000000000e+00 0.0000000000000000e+00  9.9874769764532678e-01 0.0000000000000000e+00 0.0000000000000000e+00  1.0007958353014013e+00 0.0000000000000000e+00 0.0000000000000000e+00  1.0005755482509109e+00 0.0000000000000000e+00 0.0000000000000000e+00  1.0015679522038230e+00 0.0000000000000000e+00 0.0000000000000000e+00  1.0018477401726738e+00 0.0000000000000000e+00 0.0000000000000000e+00  1.0024694602875213e+00 0.0000000000000000e+00 0.0000000000000000e+00  1.0034049272220618e+00 0.0000000000000000e+00 0.0000000000000000e+00  1.0040747827236352e+00 0.0000000000000000e+00 0.0000000000000000e+00  1.0048974510307416e+00 0.0000000000000000e+00 0.0000000000000000e+00  1.0059668383968583e+00 0.0000000000000000e+00 0.0000000000000000e+00  1.0078245446427594e+00 0.0000000000000000e+00 0.0000000000000000e+00  1.0097342292065214e+00 0.0000000000000000e+00 0.0000000000000000e+00  1.0130825909303878e+00 0.0000000000000000e+00 0.0000000000000000e+00  1.0142599816233069e+00 0.0000000000000000e+00 0.0000000000000000e+00  1.0179498616843943e+00 0.0000000000000000e+00 0.0000000000000000e+00  1.0237875283781714e+00 0.0000000000000000e+00 0.0000000000000000e+00  1.0279566618282940e+00 0.0000000000000000e+00 0.0000000000000000e+00  1.0405091578207020e+00 0.0000000000000000e+00 0.0000000000000000e+00  1.0469348216942505e+00 0.0000000000000000e+00 0.0000000000000000e+00  1.0521502583948874e+00 0.0000000000000000e+00 0.0000000000000000e+00  1.0573178567734576e+00 0.0000000000000000e+00 0.0000000000000000e+00  1.0603616310867054e+00 0.0000000000000000e+00 0.0000000000000000e+00  1.0621413691240960e+00 0.0000000000000000e+00 0.0000000000000000e+00  1.0629223831987538e+00 0.0000000000000000e+00 0.0000000000000000e+00  1.0607087171904548e+00 0.0000000000000000e+00 0.0000000000000000e+00  1.0574770745735422e+00 0.0000000000000000e+00 0.0000000000000000e+00  1.0526279007734722e+00 0.0000000000000000e+00 0.0000000000000000e+00  1.0472923954325069e+00 0.0000000000000000e+00 0.0000000000000000e+00  1.0404771309729810e+00 0.0000000000000000e+00 0.0000000000000000e+00  1.0346801690843834e+00 0.0000000000000000e+00 0.0000000000000000e+00  1.0290043305110408e+00 0.0000000000000000e+00 0.0000000000000000e+00  1.0236661632071087e+00 0.0000000000000000e+00 0.0000000000000000e+00  1.0193350425382033e+00 0.0000000000000000e+00 0.0000000000000000e+00  1.0155322359906545e+00 0.0000000000000000e+00 0.0000000000000000e+00  1.0124106582272896e+00 0.0000000000000000e+00 0.0000000000000000e+00  1.0095334633101036e+00 0.0000000000000000e+00 0.0000000000000000e+00  1.0068605425401991e+00 0.0000000000000000e+00 0.0000000000000000e+00  1.0055397424834738e+00 0.0000000000000000e+00 0.0000000000000000e+00  1.0048083015176530e+00 0.0000000000000000e+00 0.0000000000000000e+00  1.0029488949470202e+00 0.0000000000000000e+00 0.0000000000000000e+00  1.0022120531923162e+00 0.0000000000000000e+00 0.0000000000000000e+00  1.0013703065207600e+00 0.0000000000000000e+00 0.0000000000000000e+00  1.0007225244725233e+00 0.0000000000000000e+00 0.0000000000000000e+00  1.0006637939536989e+00 0.0000000000000000e+00 0.0000000000000000e+00  1.0002196992068930e+00 0.0000000000000000e+00 0.0000000000000000e+00  9.9992972756442478e-01 0.0000000000000000e+00 0.0000000000000000e+00  1.0001169341173870e+00 0.0000000000000000e+00 0.0000000000000000e+00  9.9951046774139296e-01 0.0000000000000000e+00 0.0000000000000000e+00  9.9881337530020065e-01 0.0000000000000000e+00 0.0000000000000000e+00  9.9954700763262350e-01 0.0000000000000000e+00 0.0000000000000000e+00  9.9925151336848272e-01 0.0000000000000000e+00 0.0000000000000000e+00  9.9873717930281358e-01 0.0000000000000000e+00 0.0000000000000000e+00  9.9919800929190306e-01 0.0000000000000000e+00 0.0000000000000000e+00  9.9877822218642520e-01 0.0000000000000000e+00 0.0000000000000000e+00  9.9818846659690430e-01 0.0000000000000000e+00 0.0000000000000000e+00  9.9905816455248198e-01 0.0000000000000000e+00 0.0000000000000000e+00  9.9893697826264460e-01 0.0000000000000000e+00 0.0000000000000000e+00  9.9870482290509743e-01 0.0000000000000000e+00 0.0000000000000000e+00  9.9925881660701810e-01 0.0000000000000000e+00 0.0000000000000000e+00  9.9906245163754681e-01 0.0000000000000000e+00 0.0000000000000000e+00  9.9884522076995030e-01 0.0000000000000000e+00 0.0000000000000000e+00  9.9927747948861412e-01 0.0000000000000000e+00 0.0000000000000000e+00  9.9878360950467160e-01 0.0000000000000000e+00 0.0000000000000000e+00  9.9805179920297626e-01 0.0000000000000000e+00 0.0000000000000000e+00  9.9975981119533897e-01 0.0000000000000000e+00 0.0000000000000000e+00  9.9949666483580346e-01 0.0000000000000000e+00 0.0000000000000000e+00  9.9770149999618041e-01 0.0000000000000000e+00 0.0000000000000000e+00  9.9700683707623650e-01 0.0000000000000000e+00 0.0000000000000000e+00  9.9795027108616952e-01 0.0000000000000000e+00 0.0000000000000000e+00  9.9801698198354438e-01 0.0000000000000000e+00 0.0000000000000000e+00  9.9876883798039628e-01 0.0000000000000000e+00 0.0000000000000000e+00  9.9833975338511061e-01 0.0000000000000000e+00 0.0000000000000000e+00  9.9803772680498815e-01 0.0000000000000000e+00 0.0000000000000000e+00  9.9858359531149432e-01 0.0000000000000000e+00 0.0000000000000000e+00  9.9901093871280289e-01 0.0000000000000000e+00 0.0000000000000000e+00  9.9891500685221291e-01 0.0000000000000000e+00 0.0000000000000000e+00  9.9885454959714204e-01 0.0000000000000000e+00 0.0000000000000000e+00  9.9913209270369152e-01 0.0000000000000000e+00 0.0000000000000000e+00  9.9945203239892644e-01 0.0000000000000000e+00 0.0000000000000000e+00  9.9933665751377965e-01 0.0000000000000000e+00 0.0000000000000000e+00  9.9966596550804021e-01 0.0000000000000000e+00 0.0000000000000000e+00  9.9973316919265387e-01 0.0000000000000000e+00 0.0000000000000000e+00  9.9948879354020559e-01 0.0000000000000000e+00 0.0000000000000000e+00  9.9971438647286459e-01 0.0000000000000000e+00 0.0000000000000000e+00  9.9977348043956671e-01 0.0000000000000000e+00 0.0000000000000000e+00  1.0003394584163787e+00 0.0000000000000000e+00 0.0000000000000000e+00  9.9995099394155018e-01 0.0000000000000000e+00 0.0000000000000000e+00  1.0000794471350600e+00 0.0000000000000000e+00 0.0000000000000000e+00  9.9987951245120654e-01 0.0000000000000000e+00 0.0000000000000000e+00  1.0003204416922284e+00 0.0000000000000000e+00 0.0000000000000000e+00  1.0000902168737713e+00 0.0000000000000000e+00 0.0000000000000000e+00  1.0004276575799631e+00 0.0000000000000000e+00 0.0000000000000000e+00  9.9987801429664824e-01 0.0000000000000000e+00 0.0000000000000000e+00  1.0000844438508532e+00 6.3094296580347659e-05 0.0000000000000000e+00  9.9984818362201922e-01 -3.3117753869988450e-05 0.0000000000000000e+00  1.0005423084146330e+00 -9.0751621022422749e-05 0.0000000000000000e+00  9.9992788103974417e-01 -8.8226365897778593e-05 0.0000000000000000e+00  1.0002465806687018e+00 -1.3582391113596220e-04 0.0000000000000000e+00  9.9984684151355352e-01 -5.4661397976040602e-05 0.0000000000000000e+00  9.9961153395033453e-01 -2.6309816827420649e-05 0.0000000000000000e+00  1.0000686846462898e+00 -3.9901356157266359e-07 0.0000000000000000e+00  1.0002204915419435e+00 1.7659156507120220e-05 0.0000000000000000e+00  1.0003830981932096e+00 2.0444252554239478e-04 0.0000000000000000e+00  1.0012482649368200e+00 -3.7998331393505571e-04 0.0000000000000000e+00  1.0013072439429758e+00 -1.9587775013355115e-04 0.0000000000000000e+00  9.9999778819697049e-01 -3.8722304534760698e-04 0.0000000000000000e+00  9.9891066646432591e-01 -2.8699586599793136e-04 0.0000000000000000e+00  9.9975316110658052e-01 2.8886044959766969e-04 0.0000000000000000e+00  1.0005673081584439e+00 6.3244848035223658e-04 0.0000000000000000e+00  9.9986108889888359e-01 1.4506998458574543e-04 0.0000000000000000e+00  9.9982844950398919e-01 2.2507065813361874e-04 0.0000000000000000e+00  9.9949662841761233e-01 2.0779138720386023e-04 0.0000000000000000e+00  9.9996241972220423e-01 4.3524056181586190e-05 0.0000000000000000e+00  9.9969596625807222e-01 1.9900121260104445e-05 0.0000000000000000e+00  1.0001388804432458e+00 -1.0843016415085924e-05 0.0000000000000000e+00  1.0001730575733589e+00 -7.2922781796774566e-05 0.0000000000000000e+00  9.9979913596862302e-01 0.0000000000000000e+00 0.0000000000000000e+00  9.9977655643733598e-01 0.0000000000000000e+00 0.0000000000000000e+00  9.9972927739417816e-01 0.0000000000000000e+00 0.0000000000000000e+00  9.9999057475927178e-01 0.0000000000000000e+00 0.0000000000000000e+00  9.9958864459523333e-01 0.0000000000000000e+00 0.0000000000000000e+00  9.9965205891211761e-01 0.0000000000000000e+00 0.0000000000000000e+00  9.9990145520369744e-01 0.0000000000000000e+00 0.0000000000000000e+00  1.0002402321380219e+00 0.0000000000000000e+00 0.0000000000000000e+00  9.9988105257383142e-01 0.0000000000000000e+00 0.0000000000000000e+00  9.9989570711492304e-01 0.0000000000000000e+00 0.0000000000000000e+00  9.9981466204211977e-01 0.0000000000000000e+00 0.0000000000000000e+00  9.9956004188529901e-01 0.0000000000000000e+00 0.0000000000000000e+00  9.9936776969372076e-01 0.0000000000000000e+00 0.0000000000000000e+00  9.9984066770364810e-01 0.0000000000000000e+00 0.0000000000000000e+00  9.9952870825760920e-01 0.0000000000000000e+00 0.0000000000000000e+00  1.0001778346413777e+00 0.0000000000000000e+00 0.0000000000000000e+00  9.9952659853441739e-01 0.0000000000000000e+00 0.0000000000000000e+00  9.9942931304057570e-01 0.0000000000000000e+00 0.0000000000000000e+00  9.9906589797932355e-01 0.0000000000000000e+00 0.0000000000000000e+00  9.9919888768721721e-01 0.0000000000000000e+00 0.0000000000000000e+00  9.9900064840642333e-01 0.0000000000000000e+00 0.0000000000000000e+00  9.9846856465536082e-01 0.0000000000000000e+00 0.0000000000000000e+00  9.9864745168651237e-01 0.0000000000000000e+00 0.0000000000000000e+00  9.9809503155052104e-01 0.0000000000000000e+00 0.0000000000000000e+00  9.9822980648810489e-01 0.0000000000000000e+00 0.0000000000000000e+00  9.9732854755504052e-01 0.0000000000000000e+00 0.0000000000000000e+00  9.9795429663153989e-01 0.0000000000000000e+00 0.0000000000000000e+00  9.9941103886652716e-01 0.0000000000000000e+00 0.0000000000000000e+00  9.9970659212998270e-01 0.0000000000000000e+00 0.0000000000000000e+00  9.9813962963926928e-01 0.0000000000000000e+00 0.0000000000000000e+00  9.9876214951101616e-01 0.0000000000000000e+00 0.0000000000000000e+00  9.9924796046435183e-01 0.0000000000000000e+00 0.0000000000000000e+00  9.9885546573392481e-01 0.0000000000000000e+00 0.0000000000000000e+00  9.9907090917636732e-01 0.0000000000000000e+00 0.0000000000000000e+00  9.9927116598379051e-01 0.0000000000000000e+00 0.0000000000000000e+00  9.9873155058183216e-01 0.0000000000000000e+00 0.0000000000000000e+00  9.9897167798452191e-01 0.0000000000000000e+00 0.0000000000000000e+00  9.9910902823966707e-01 0.0000000000000000e+00 0.0000000000000000e+00  9.9834366689555143e-01 0.0000000000000000e+00 0.0000000000000000e+00  9.9883043758079204e-01 0.0000000000000000e+00 0.0000000000000000e+00  9.9923696394627026e-01 0.0000000000000000e+00 0.0000000000000000e+00  9.9876554877108226e-01 0.0000000000000000e+00 0.0000000000000000e+00  9.9925153894834728e-01 0.0000000000000000e+00 0.0000000000000000e+00  9.9954843525150650e-01 0.0000000000000000e+00 0.0000000000000000e+00  9.9883352707469897e-01 0.0000000000000000e+00 0.0000000000000000e+00  9.9953891102152970e-01 0.0000000000000000e+00 0.0000000000000000e+00  1.0001670031941521e+00 0.0000000000000000e+00 0.0000000000000000e+00  9.9999427842199784e-01 0.0000000000000000e+00 0.0000000000000000e+00  1.0003147543974917e+00 0.0000000000000000e+00 0.0000000000000000e+00  1.0007309626897656e+00 0.0000000000000000e+00 0.0000000000000000e+00  1.0008037973651971e+00 0.0000000000000000e+00 0.0000000000000000e+00  1.0013962832602161e+00 0.0000000000000000e+00 0.0000000000000000e+00  1.0022799634318951e+00 0.0000000000000000e+00 0.0000000000000000e+00  1.0029756268826555e+00 0.0000000000000000e+00 0.0000000000000000e+00  1.0046725213170506e+00 0.0000000000000000e+00 0.0000000000000000e+00  1.0053591646218865e+00 0.0000000000000000e+00 0.0000000000000000e+00  1.0067395048505827e+00 0.0000000000000000e+00 0.0000000000000000e+00  1.0092750333846741e+00 0.0000000000000000e+00 0.0000000000000000e+00  1.0121731043944311e+00 0.0000000000000000e+00 0.0000000000000000e+00  1.0152034588318128e+00 0.0000000000000000e+00 0.0000000000000000e+00  1.0185023101186592e+00 0.0000000000000000e+00 0.0000000000000000e+00  1.0228727629560617e+00 0.0000000000000000e+00 0.0000000000000000e+00  1.0286828411098559e+00 0.0000000000000000e+00 0.0000000000000000e+00  1.0342900787814597e+00 0.0000000000000000e+00 0.0000000000000000e+00  1.0400619995944729e+00 0.0000000000000000e+00 0.0000000000000000e+00  1.0472960298300424e+00 0.0000000000000000e+00 0.0000000000000000e+00  1.0524552073223430e+00 0.0000000000000000e+00 0.0000000000000000e+00  1.0576825340383118e+00 0.0000000000000000e+00 0.0000000000000000e+00  1.0612677511973996e+00 0.0000000000000000e+00 0.0000000000000000e+00  1.0626731308414312e+00 0.0000000000000000e+00 0.0000000000000000e+00  1.0623540434736485e+00 0.0000000000000000e+00 0.0000000000000000e+00  1.0605778883143107e+00 0.0000000000000000e+00 0.0000000000000000e+00  1.0573020695220123e+00 0.0000000000000000e+00 0.0000000000000000e+00  1.0521117173037406e+00 0.0000000000000000e+00 0.0000000000000000e+00  1.0471274139355988e+00 0.0000000000000000e+00 0.0000000000000000e+00  1.0410732278772028e+00 0.0000000000000000e+00 0.0000000000000000e+00  1.0288920604347598e+00 0.0000000000000000e+00 0.0000000000000000e+00  1.0234811462198004e+00 0.0000000000000000e+00 0.0000000000000000e+00  1.0191205330598692e+00 0.0000000000000000e+00 0.0000000000000000e+00  1.0151386192310148e+00 0.0000000000000000e+00 0.0000000000000000e+00  1.0118019402566927e+00 0.0000000000000000e+00 0.0000000000000000e+00  1.0090921475235457e+00 0.0000000000000000e+00 0.0000000000000000e+00  1.0069135796420516e+00 0.0000000000000000e+00 0.0000000000000000e+00  1.0048362174260173e+00 0.0000000000000000e+00 0.0000000000000000e+00  1.0034506244768293e+00 0.0000000000000000e+00 0.0000000000000000e+00  1.0025120038859576e+00 0.0000000000000000e+00 0.0000000000000000e+00  1.0015502253424018e+00 0.0000000000000000e+00 0.0000000000000000e+00  1.0014335163335022e+00 0.0000000000000000e+00 0.0000000000000000e+00  1.0000823512461277e+00 0.0000000000000000e+00 0.0000000000000000e+00  1.0001009548332263e+00 0.0000000000000000e+00 0.0000000000000000e+00  9.9972718943542127e-01 0.0000000000000000e+00 0.0000000000000000e+00  1.0004555136915072e+00 0.0000000000000000e+00 0.0000000000000000e+00  1.0002350741630486e+00 0.0000000000000000e+00 0.0000000000000000e+00  9.9979584102644481e-01 0.0000000000000000e+00 0.0000000000000000e+00  1.0000001295800756e+00 0.0000000000000000e+00 0.0000000000000000e+00  1.0000001295800756e+00 0.0000000000000000e+00 0.0000000000000000e+00  1.0000001295800756e+00 0.0000000000000000e+00 0.0000000000000000e+00  1.0000001295800756e+00 0.0000000000000000e+00 0.0000000000000000e+00  1.0000001295800756e+00 0.0000000000000000e+00 0.0000000000000000e+00  1.0000001295800756e+00 0.0000000000000000e+00 0.0000000000000000e+00  1.0000001295800756e+00 0.0000000000000000e+00 0.0000000000000000e+00  1.0000001295800756e+00 0.0000000000000000e+00 0.0000000000000000e+00  1.0000001295800756e+00 0.0000000000000000e+00 0.0000000000000000e+00  1.0000001295800756e+00 0.0000000000000000e+00 0.0000000000000000e+00  1.0000001295800756e+00 0.0000000000000000e+00 0.0000000000000000e+00  1.0000001295800756e+00 0.0000000000000000e+00 0.0000000000000000e+00  1.0000001295800756e+00 0.0000000000000000e+00 0.0000000000000000e+00  1.0000001295800756e+00 0.0000000000000000e+00 0.0000000000000000e+00  1.0000001295800756e+00 0.0000000000000000e+00 0.0000000000000000e+00  1.0000001295800756e+00 0.0000000000000000e+00 0.0000000000000000e+00  1.0000001295800756e+00 0.0000000000000000e+00 0.0000000000000000e+00  1.0000001295800756e+00 0.0000000000000000e+00 0.0000000000000000e+00  1.0000001295800756e+00 0.0000000000000000e+00 0.0000000000000000e+00  1.0000001295800756e+00 0.0000000000000000e+00 0.0000000000000000e+00  1.0346215077508130e+00 -7.4125640826430399e-03 0.0000000000000000e+00  1.0335096059569400e+00 -1.5158468152049511e-02 0.0000000000000000e+00  1.0321897232968666e+00 -2.3818832021152477e-02 0.0000000000000000e+00  1.0276045020620994e+00 -3.3487051375213669e-02 0.0000000000000000e+00  1.0236691182773026e+00 -4.6980325299990328e-02 0.0000000000000000e+00  1.0280507425010412e+00 -4.9497397470960450e-02 0.0000000000000000e+00  1.0320161475788141e+00 -5.1998439728715963e-02 0.0000000000000000e+00  1.0369555760891922e+00 -5.4084914639317874e-02 0.0000000000000000e+00  1.0421001822311555e+00 -5.5911198885245150e-02 0.0000000000000000e+00  1.0477993634010025e+00 -5.7190684699580011e-02 0.0000000000000000e+00  1.0539839038002614e+00 -5.7990233024000790e-02 0.0000000000000000e+00  1.0604787182302491e+00 -5.7994969108696066e-02 0.0000000000000000e+00  1.0673523194907069e+00 -5.7296705375526384e-02 0.0000000000000000e+00  1.0741498290285632e+00 -5.5565017473973112e-02 0.0000000000000000e+00  1.0810587913530210e+00 -5.3058278234471713e-02 0.0000000000000000e+00  1.0877175871497935e+00 -4.9684747267385039e-02 0.0000000000000000e+00  1.0941847124598838e+00 -4.5119606643458612e-02 0.0000000000000000e+00  1.0999354792280067e+00 -3.9531741656060021e-02 0.0000000000000000e+00  1.1049882666819024e+00 -3.3253895580122456e-02 0.0000000000000000e+00  1.1091786680600386e+00 -2.6209855135363013e-02 0.0000000000000000e+00  1.1122891267454280e+00 -1.8562496761303924e-02 0.0000000000000000e+00  1.1142392532221734e+00 -1.0487974168071798e-02 0.0000000000000000e+00  1.1150643026317621e+00 -2.2944465965672235e-03 0.0000000000000000e+00  1.1146646107899085e+00 6.1063143243897519e-03 0.0000000000000000e+00  1.1131020226600317e+00 1.4041358237357080e-02 0.0000000000000000e+00  1.1104111295199885e+00 2.1911330123529901e-02 0.0000000000000000e+00  1.1066311158452684e+00 2.9227378117645947e-02 0.0000000000000000e+00  1.1020777111389635e+00 3.5733095646558861e-02 0.0000000000000000e+00  1.0967186760018939e+00 4.1403488688061409e-02 0.0000000000000000e+00  1.0907574486749314e+00 4.6207885752818589e-02 0.0000000000000000e+00  1.0843947720594123e+00 5.0153144485311031e-02 0.0000000000000000e+00  1.0778098112056433e+00 5.3077894521051668e-02 0.0000000000000000e+00  1.0710741701487199e+00 5.5145605447284647e-02 0.0000000000000000e+00  1.0644477317560663e+00 5.6398084920096583e-02 0.0000000000000000e+00  1.0580120909785768e+00 5.6796007194733510e-02 0.0000000000000000e+00  1.0518315529620705e+00 5.6543042432939346e