<?xml version="1.0"?>
<VTKFile type="UnstructuredGrid"  version="0.1"  >
<UnstructuredGrid>
<Piece  NumberOfPoints="10199" NumberOfCells="20110">
<Points>
<DataArray  type="Float64"  NumberOfComponents="3"  format="ascii">0 -5 0  8 -5 0  30 -5 0  40 -5 0  40 5 0  30 5 0  8 5 0  0 5 0  8 -2.5 0  15 -2.5 0  30 -2.5 0  30 2.5 0  15 2.5 0  8 2.5 0  10 0.5 0  10 -0.5 0  0 0 0  0.4210526315780956 -5 0  0.8421052631563433 -5 0  1.263157894734281 -5 0  1.684210526311999 -5 0  2.105263157889717 -5 0  2.526315789467435 -5 0  2.947368421045153 -5 0  3.368421052622872 -5 0  3.78947368420059 -5 0  4.210526315779479 -5 0  4.631578947359537 -5 0  5.052631578939595 -5 0  5.473684210519653 -5 0  5.89473684209971 -5 0  6.315789473679768 -5 0  6.736842105259826 -5 0  7.157894736839884 -5 0  7.578947368419942 -5 0  8.407407407405314 -5 0  8.814814814810628 -5 0  9.222222222215942 -5 0  9.629629629621256 -5 0  10.03703703702657 -5 0  10.44444444443188 -5 0  10.8518518518372 -5 0  11.25925925924251 -5 0  11.66666666664783 -5 0  12.07407407405314 -5 0  12.48148148145846 -5 0  12.88888888886377 -5 0  13.29629629626908 -5 0  13.7037037036744 -5 0  14.11111111107971 -5 0  14.51851851848502 -5 0  14.92592592589034 -5 0  15.33333333329565 -5 0  15.74074074070096 -5 0  16.14814814810754 -5 0  16.55555555551614 -5 0  16.96296296292474 -5 0  17.37037037033335 -5 0  17.77777777774195 -5 0  18.18518518515056 -5 0  18.59259259255916 -5 0  18.99999999996776 -5 0  19.40740740737636 -5 0  19.81481481478497 -5 0  20.22222222219357 -5 0  20.62962962960217 -5 0  21.03703703701077 -5 0  21.44444444441937 -5 0  21.85185185182797 -5 0  22.25925925923657 -5 0  22.66666666664518 -5 0  23.07407407405378 -5 0  23.48148148146238 -5 0  23.88888888887098 -5 0  24.29629629627958 -5 0  24.70370370368818 -5 0  25.11111111109678 -5 0  25.51851851850539 -5 0  25.92592592591399 -5 0  26.33333333332259 -5 0  26.74074074073119 -5 0  27.14814814813979 -5 0  27.55555555554839 -5 0  27.96296296295699 -5 0  28.3703703703656 -5 0  28.7777777777742 -5 0  29.1851851851828 -5 0  29.5925925925914 -5 0  30.41666666667852 -5 0  30.83333333335704 -5 0  31.25000000003556 -5 0  31.66666666671408 -5 0  32.08333333338936 -5 0  32.50000000005308 -5 0  32.9166666667168 -5 0  33.33333333338052 -5 0  33.75000000004424 -5 0  34.16666666670795 -5 0  34.58333333337167 -5 0  35.00000000003539 -5 0  35.41666666669911 -5 0  35.83333333336282 -5 0  36.25000000002654 -5 0  36.66666666669026 -5 0  37.08333333335398 -5 0  37.50000000001769 -5 0  37.91666666668141 -5 0  38.33333333334513 -5 0  38.75000000000885 -5 0  39.16666666667257 -5 0  39.58333333333628 -5 0  40 -4.583333333332821 0  40 -4.166666666665642 0  40 -3.74999999999855 0  40 -3.333333333333135 0  40 -2.916666666667806 0  40 -2.500000000002478 0  40 -2.083333333337148 0  40 -1.666666666671818 0  40 -1.250000000006488 0  40 -0.8333333333405228 0  40 -0.4166666666733416 0  40 -6.163070054299169e-12 0  40 0.4166666666610173 0  40 0.8333333333281976 0  40 1.249999999995378 0  40 1.666666666662558 0  40 2.083333333329739 0  40 2.499999999996919 0  40 2.916666666664099 0  40 3.33333333333128 0  40 3.74999999999846 0  40 4.166666666665641 0  40 4.583333333332821 0  39.58333333333628 5 0  39.16666666667256 5 0  38.75000000000885 5 0  38.33333333334513 5 0  37.91666666668141 5 0  37.50000000001769 5 0  37.08333333335398 5 0  36.66666666669025 5 0  36.25000000002654 5 0  35.83333333336282 5 0  35.41666666669911 5 0  35.00000000003539 5 0  34.58333333337167 5 0  34.16666666670795 5 0  33.75000000004424 5 0  33.33333333338052 5 0  32.9166666667168 5 0  32.50000000005308 5 0  32.08333333338936 5 0  31.66666666671408 5 0  31.25000000003556 5 0  30.83333333335704 5 0  30.41666666667852 5 0  29.59259259259259 5 0  29.18518518518519 5 0  28.77777777777778 5 0  28.37037037037037 5 0  27.96296296296296 5 0  27.55555555555556 5 0  27.14814814814815 5 0  26.74074074074074 5 0  26.33333333333333 5 0  25.92592592592593 5 0  25.51851851851852 5 0  25.11111111111111 5 0  24.7037037037037 5 0  24.2962962962963 5 0  23.88888888888889 5 0  23.48148148148148 5 0  23.07407407407408 5 0  22.66666666666667 5 0  22.25925925925926 5 0  21.85185185185185 5 0  21.44444444444445 5 0  21.03703703703704 5 0  20.62962962962963 5 0  20.22222222222222 5 0  19.81481481481482 5 0  19.40740740740741 5 0  19 5 0  18.5925925925926 5 0  18.18518518518519 5 0  17.77777777777778 5 0  17.37037037037037 5 0  16.96296296296296 5 0  16.55555555555556 5 0  16.14814814814815 5 0  15.74074074074074 5 0  15.33333333333333 5 0  14.92592592592593 5 0  14.51851851851852 5 0  14.11111111111111 5 0  13.70370370370371 5 0  13.2962962962963 5 0  12.88888888888889 5 0  12.48148148148148 5 0  12.07407407407408 5 0  11.66666666666667 5 0  11.25925925925926 5 0  10.85185185185185 5 0  10.44444444444445 5 0  10.03703703703704 5 0  9.629629629629633 5 0  9.222222222222221 5 0  8.814814814814817 5 0  8.407407407407408 5 0  7.5789473684193 5 0  7.157894736838599 5 0  6.73684210526082 5 0  6.315789473684795 5 0  5.894736842108769 5 0  5.473684210532742 5 0  5.052631578956715 5 0  4.631578947380689 5 0  4.210526315804662 5 0  3.789473684226299 5 0  3.368421052645599 5 0  2.947368421064898 5 0  2.526315789484198 5 0  2.105263157903499 5 0  1.6842105263228 5 0  1.2631578947421 5 0  0.8421052631613994 5 0  0.4210526315806993 5 0  0 4.545454545454545 0  0 4.09090909090909 0  0 3.636363636363634 0  0 3.18181818181818 0  0 2.727272727272726 0  0 2.272727272727271 0  0 1.818181818181817 0  0 1.363636363636363 0  0 0.9090909090909092 0  0 0.454545454545455 0  0 -0.4545454545450807 0  0 -0.9090909090895867 0  0 -1.363636363633713 0  0 -1.818181818177841 0  0 -2.272727272723127 0  0 -2.727272727269273 0  0 -3.181818181815419 0  0 -3.636363636361564 0  0 -4.090909090907709 0  0 -4.545454545453855 0  8 -4.499999999999999 0  8 -3.999999999999999 0  8 -3.499999999999999 0  8 -3 0  8.137254901963859 -2.5 0  8.274509803926303 -2.5 0  8.411764705886863 -2.5 0  8.549019607849138 -2.5 0  8.686274509809513 -2.5 0  8.82352941176989 -2.5 0  8.960784313730265 -2.5 0  9.098039215690642 -2.5 0  9.235294117651017 -2.5 0  9.372549019611395 -2.5 0  9.50980392157177 -2.5 0  9.647058823532147 -2.5 0  9.784313725492522 -2.5 0  9.921568627452897 -2.5 0  10.05882352941327 -2.5 0  10.19607843137365 -2.5 0  10.33333333333402 -2.5 0  10.4705882352944 -2.5 0  10.60784313725478 -2.5 0  10.74509803921515 -2.5 0  10.88235294117553 -2.5 0  11.0196078431359 -2.5 0  11.15686274509628 -2.5 0  11.29411764705665 -2.5 0  11.43137254901703 -2.5 0  11.56862745097915 -2.5 0  11.70588235294301 -2.5 0  11.84313725490686 -2.5 0  11.98039215687072 -2.5 0  12.11764705883209 -2.5 0  12.25490196079247 -2.5 0  12.39215686275285 -2.5 0  12.52941176471322 -2.5 0  12.6666666666736 -2.5 0  12.80392156863397 -2.5 0  12.94117647059435 -2.5 0  13.07843137255473 -2.5 0  13.2156862745151 -2.5 0  13.35294117647548 -2.5 0  13.49019607843586 -2.5 0  13.62745098039623 -2.5 0  13.76470588235661 -2.5 0  13.90196078431699 -2.5 0  14.03921568627736 -2.5 0  14.17647058823774 -2.5 0  14.31372549019812 -2.5 0  14.45098039215849 -2.5 0  14.58823529411887 -2.5 0  14.72549019607925 -2.5 0  14.86274509803962 -2.5 0  15.20270270270254 -2.5 0  15.40540540540509 -2.5 0  15.60810810810763 -2.5 0  15.81081081081017 -2.5 0  16.01351351351227 -2.5 0  16.21621621621265 -2.5 0  16.41891891891279 -2.5 0  16.62162162161294 -2.5 0  16.82432432431308 -2.5 0  17.02702702701322 -2.5 0  17.22972972971337 -2.5 0  17.43243243241351 -2.5 0  17.63513513511365 -2.5 0  17.83783783781379 -2.5 0  18.04054054051394 -2.5 0  18.24324324321408 -2.5 0  18.44594594591422 -2.5 0  18.64864864861436 -2.5 0  18.85135135131451 -2.5 0  19.05405405401465 -2.5 0  19.25675675671479 -2.5 0  19.45945945941494 -2.5 0  19.66216216211508 -2.5 0  19.86486486481522 -2.5 0  20.06756756751536 -2.5 0  20.27027027021551 -2.5 0  20.47297297291565 -2.5 0  20.6756756756158 -2.5 0  20.87837837831594 -2.5 0  21.08108108101608 -2.5 0  21.28378378371622 -2.5 0  21.48648648641637 -2.5 0  21.68918918911651 -2.5 0  21.89189189181666 -2.5 0  22.0945945945168 -2.5 0  22.29729729721694 -2.5 0  22.49999999991778 -2.5 0  22.70270270262203 -2.5 0  22.90540540532697 -2.5 0  23.10810810803191 -2.5 0  23.31081081073686 -2.5 0  23.5135135134418 -2.5 0  23.71621621614674 -2.5 0  23.91891891885169 -2.5 0  24.12162162155663 -2.5 0  24.32432432426158 -2.5 0  24.52702702696652 -2.5 0  24.72972972967146 -2.5 0  24.93243243237641 -2.5 0  25.13513513508135 -2.5 0  25.3378378377863 -2.5 0  25.54054054049124 -2.5 0  25.74324324319618 -2.5 0  25.94594594590112 -2.5 0  26.14864864860607 -2.5 0  26.35135135131101 -2.5 0  26.55405405401596 -2.5 0  26.7567567567209 -2.5 0  26.95945945942584 -2.5 0  27.16216216213079 -2.5 0  27.36486486483573 -2.5 0  27.56756756754068 -2.5 0  27.77027027024562 -2.5 0  27.97297297295056 -2.5 0  28.1756756756555 -2.5 0  28.37837837836045 -2.5 0  28.5810810810654 -2.5 0  28.78378378377034 -2.5 0  28.98648648647528 -2.5 0  29.18918918918023 -2.5 0  29.39189189188517 -2.5 0  29.59459459459011 -2.5 0  29.79729729729506 -2.5 0  30 -3.000000000000001 0  30 -3.500000000000001 0  30 -4.000000000000001 0  30 -4.5 0  8 4.499999999999999 0  8 3.999999999999999 0  8 3.499999999999999 0  8 3 0  8.137254901963859 2.5 0  8.274509803926303 2.5 0  8.411764705886863 2.5 0  8.549019607849138 2.5 0  8.686274509809513 2.5 0  8.82352941176989 2.5 0  8.960784313730265 2.5 0  9.098039215690642 2.5 0  9.235294117651017 2.5 0  9.372549019611395 2.5 0  9.50980392157177 2.5 0  9.647058823532147 2.5 0  9.784313725492522 2.5 0  9.921568627452897 2.5 0  10.05882352941327 2.5 0  10.19607843137365 2.5 0  10.33333333333402 2.5 0  10.4705882352944 2.5 0  10.60784313725478 2.5 0  10.74509803921515 2.5 0  10.88235294117553 2.5 0  11.0196078431359 2.5 0  11.15686274509628 2.5 0  11.29411764705665 2.5 0  11.43137254901703 2.5 0  11.56862745097915 2.5 0  11.70588235294301 2.5 0  11.84313725490686 2.5 0  11.98039215687072 2.5 0  12.11764705883209 2.5 0  12.25490196079247 2.5 0  1
[...]
<PointData  Vectors="f_17"> 
<DataArray  type="Float64"  Name="f_17"  NumberOfComponents="3" format="ascii">1.0000001299742769e+00 0.0000000000000000e+00 0.0000000000000000e+00  1.0393372435613895e+00 0.0000000000000000e+00 0.0000000000000000e+00  1.0536940948535098e+00 0.0000000000000000e+00 0.0000000000000000e+00  1.0776865391682133e+00 0.0000000000000000e+00 0.0000000000000000e+00  1.0892710970476280e+00 0.0000000000000000e+00 0.0000000000000000e+00  1.0606187070757294e+00 0.0000000000000000e+00 0.0000000000000000e+00  1.0416003543206585e+00 0.0000000000000000e+00 0.0000000000000000e+00  1.0000001299742769e+00 0.0000000000000000e+00 0.0000000000000000e+00  1.0175052444111186e+00 -5.0271973654200545e-02 0.0000000000000000e+00  9.8593115532563735e-01 1.9753318516958770e-02 0.0000000000000000e+00  1.0137718538330673e+00 6.4337687752547140e-02 0.0000000000000000e+00  1.1304154653294298e+00 7.4320132974107583e-02 0.0000000000000000e+00  1.1353078846531262e+00 -3.7936028142270130e-02 0.0000000000000000e+00  1.0252880516120249e+00 5.1415557489031420e-02 0.0000000000000000e+00  0.0000000000000000e+00 0.0000000000000000e+00 0.0000000000000000e+00  0.0000000000000000e+00 0.0000000000000000e+00 0.0000000000000000e+00  1.0000001299742769e+00 0.0000000000000000e+00 0.0000000000000000e+00  9.9928545549409709e-01 0.0000000000000000e+00 0.0000000000000000e+00  9.9867477134135030e-01 0.0000000000000000e+00 0.0000000000000000e+00  1.0006520583604841e+00 0.0000000000000000e+00 0.0000000000000000e+00  1.0003379019807623e+00 0.0000000000000000e+00 0.0000000000000000e+00  1.0011442679079134e+00 0.0000000000000000e+00 0.0000000000000000e+00  1.0012691365258612e+00 0.0000000000000000e+00 0.0000000000000000e+00  1.0013733420012529e+00 0.0000000000000000e+00 0.0000000000000000e+00  1.0020222644434045e+00 0.0000000000000000e+00 0.0000000000000000e+00  1.0030668292635738e+00 0.0000000000000000e+00 0.0000000000000000e+00  1.0040660528327527e+00 0.0000000000000000e+00 0.0000000000000000e+00  1.0053922892080811e+00 0.0000000000000000e+00 0.0000000000000000e+00  1.0075290855593357e+00 0.0000000000000000e+00 0.0000000000000000e+00  1.0097480872580766e+00 0.0000000000000000e+00 0.0000000000000000e+00  1.0135250600581613e+00 0.0000000000000000e+00 0.0000000000000000e+00  1.0151008448731809e+00 0.0000000000000000e+00 0.0000000000000000e+00  1.0194750149658163e+00 0.0000000000000000e+00 0.0000000000000000e+00  1.0260599232280005e+00 0.0000000000000000e+00 0.0000000000000000e+00  1.0313806977951454e+00 0.0000000000000000e+00 0.0000000000000000e+00  1.0474935830061678e+00 0.0000000000000000e+00 0.0000000000000000e+00  1.0562660278101879e+00 0.0000000000000000e+00 0.0000000000000000e+00  1.0646851411745142e+00 0.0000000000000000e+00 0.0000000000000000e+00  1.0737681378089312e+00 0.0000000000000000e+00 0.0000000000000000e+00  1.0814209329599835e+00 0.0000000000000000e+00 0.0000000000000000e+00  1.0883135381497744e+00 0.0000000000000000e+00 0.0000000000000000e+00  1.0944469629784799e+00 0.0000000000000000e+00 0.0000000000000000e+00  1.0973956541057750e+00 0.0000000000000000e+00 0.0000000000000000e+00  1.0986929599215902e+00 0.0000000000000000e+00 0.0000000000000000e+00  1.0973368009383866e+00 0.0000000000000000e+00 0.0000000000000000e+00  1.0940806104500773e+00 0.0000000000000000e+00 0.0000000000000000e+00  1.0878696281433147e+00 0.0000000000000000e+00 0.0000000000000000e+00  1.0814492604106773e+00 0.0000000000000000e+00 0.0000000000000000e+00  1.0742750456066530e+00 0.0000000000000000e+00 0.0000000000000000e+00  1.0674225349078406e+00 0.0000000000000000e+00 0.0000000000000000e+00  1.0621864858005143e+00 0.0000000000000000e+00 0.0000000000000000e+00  1.0586916943601399e+00 0.0000000000000000e+00 0.0000000000000000e+00  1.0574657892482997e+00 0.0000000000000000e+00 0.0000000000000000e+00  1.0579162278025731e+00 0.0000000000000000e+00 0.0000000000000000e+00  1.0594618731131704e+00 0.0000000000000000e+00 0.0000000000000000e+00  1.0626390430051689e+00 0.0000000000000000e+00 0.0000000000000000e+00  1.0655369176570058e+00 0.0000000000000000e+00 0.0000000000000000e+00  1.0657384339551150e+00 0.0000000000000000e+00 0.0000000000000000e+00  1.0646482502616237e+00 0.0000000000000000e+00 0.0000000000000000e+00  1.0612971858209681e+00 0.0000000000000000e+00 0.0000000000000000e+00  1.0562387122639922e+00 0.0000000000000000e+00 0.0000000000000000e+00  1.0508639566668203e+00 0.0000000000000000e+00 0.0000000000000000e+00  1.0453493553985489e+00 0.0000000000000000e+00 0.0000000000000000e+00  1.0412418098792375e+00 0.0000000000000000e+00 0.0000000000000000e+00  1.0395291790252588e+00 0.0000000000000000e+00 0.0000000000000000e+00  1.0395378757079454e+00 0.0000000000000000e+00 0.0000000000000000e+00  1.0417178608103839e+00 0.0000000000000000e+00 0.0000000000000000e+00  1.0472896066504085e+00 0.0000000000000000e+00 0.0000000000000000e+00  1.0526000751285591e+00 0.0000000000000000e+00 0.0000000000000000e+00  1.0573853493071621e+00 0.0000000000000000e+00 0.0000000000000000e+00  1.0617642667854355e+00 0.0000000000000000e+00 0.0000000000000000e+00  1.0630973943348696e+00 0.0000000000000000e+00 0.0000000000000000e+00  1.0618404462573447e+00 0.0000000000000000e+00 0.0000000000000000e+00  1.0599189755438123e+00 0.0000000000000000e+00 0.0000000000000000e+00  1.0558762576217153e+00 0.0000000000000000e+00 0.0000000000000000e+00  1.0514800691281272e+00 0.0000000000000000e+00 0.0000000000000000e+00  1.0486880050003131e+00 0.0000000000000000e+00 0.0000000000000000e+00  1.0467832868929616e+00 0.0000000000000000e+00 0.0000000000000000e+00  1.0468929664771958e+00 0.0000000000000000e+00 0.0000000000000000e+00  1.0496561735595495e+00 0.0000000000000000e+00 0.0000000000000000e+00  1.0529915955279925e+00 0.0000000000000000e+00 0.0000000000000000e+00  1.0566569125501988e+00 0.0000000000000000e+00 0.0000000000000000e+00  1.0625898407002243e+00 0.0000000000000000e+00 0.0000000000000000e+00  1.0651786685306475e+00 0.0000000000000000e+00 0.0000000000000000e+00  1.0642931145219903e+00 0.0000000000000000e+00 0.0000000000000000e+00  1.0624124973725022e+00 0.0000000000000000e+00 0.0000000000000000e+00  1.0605410670877924e+00 0.0000000000000000e+00 0.0000000000000000e+00  1.0567442715192121e+00 0.0000000000000000e+00 0.0000000000000000e+00  1.0512102077315553e+00 0.0000000000000000e+00 0.0000000000000000e+00  1.0497573300264502e+00 0.0000000000000000e+00 0.0000000000000000e+00  1.0503112683065212e+00 0.0000000000000000e+00 0.0000000000000000e+00  1.0533554008866417e+00 0.0000000000000000e+00 0.0000000000000000e+00  1.0576792200098708e+00 0.0000000000000000e+00 0.0000000000000000e+00  1.0615661800538669e+00 0.0000000000000000e+00 0.0000000000000000e+00  1.0648115552866884e+00 0.0000000000000000e+00 0.0000000000000000e+00  1.0666901768658485e+00 0.0000000000000000e+00 0.0000000000000000e+00  1.0668248133235201e+00 0.0000000000000000e+00 0.0000000000000000e+00  1.0647078001185282e+00 0.0000000000000000e+00 0.0000000000000000e+00  1.0619562574023385e+00 0.0000000000000000e+00 0.0000000000000000e+00  1.0587725282826017e+00 0.0000000000000000e+00 0.0000000000000000e+00  1.0560627852832296e+00 0.0000000000000000e+00 0.0000000000000000e+00  1.0554286147608714e+00 0.0000000000000000e+00 0.0000000000000000e+00  1.0567292623828437e+00 0.0000000000000000e+00 0.0000000000000000e+00  1.0605413896660152e+00 0.0000000000000000e+00 0.0000000000000000e+00  1.0649212350556545e+00 0.0000000000000000e+00 0.0000000000000000e+00  1.0703933781560502e+00 0.0000000000000000e+00 0.0000000000000000e+00  1.0750474744073184e+00 0.0000000000000000e+00 0.0000000000000000e+00  1.0790745301873230e+00 0.0000000000000000e+00 0.0000000000000000e+00  1.0805806785763408e+00 0.0000000000000000e+00 0.0000000000000000e+00  1.0809113849809022e+00 0.0000000000000000e+00 0.0000000000000000e+00  1.0790823980540896e+00 0.0000000000000000e+00 0.0000000000000000e+00  1.0781461010578011e+00 1.9242554874107072e-03 0.0000000000000000e+00  1.0786295941779784e+00 4.7195062204939426e-03 0.0000000000000000e+00  1.0787916641198427e+00 9.6983788975249976e-03 0.0000000000000000e+00  1.0763716063176094e+00 1.8991883749111597e-02 0.0000000000000000e+00  1.0723978440017246e+00 3.5449776971460192e-02 0.0000000000000000e+00  1.0606934123215166e+00 6.1884637175059057e-02 0.0000000000000000e+00  1.0339628465930106e+00 9.9260444034717385e-02 0.0000000000000000e+00  9.8516473966026896e-01 1.4182870124214617e-01 0.0000000000000000e+00  9.1504580994446683e-01 1.8237939289676555e-01 0.0000000000000000e+00  8.3661509897303854e-01 2.1156273962131136e-01 0.0000000000000000e+00  7.6859813049214520e-01 2.3744058520282244e-01 0.0000000000000000e+00  7.3228768933885813e-01 2.5877451288799674e-01 0.0000000000000000e+00  7.4887707224225220e-01 2.8046261784502607e-01 0.0000000000000000e+00  8.2021539672606725e-01 2.9754331645432441e-01 0.0000000000000000e+00  9.2556079211579423e-01 2.9821253180267360e-01 0.0000000000000000e+00  1.0271221026703463e+00 2.6429478863867506e-01 0.0000000000000000e+00  1.0898614810706677e+00 2.0653961013552641e-01 0.0000000000000000e+00  1.1081093292697506e+00 1.4311154527057063e-01 0.0000000000000000e+00  1.1031071994817494e+00 9.2323741935948028e-02 0.0000000000000000e+00  1.0975324039522141e+00 5.6493372111372425e-02 0.0000000000000000e+00  1.0941572951725018e+00 3.4552503053877699e-02 0.0000000000000000e+00  1.0923454820511127e+00 1.9952140300799177e-02 0.0000000000000000e+00  1.0904039826499610e+00 8.9805257375225635e-03 0.0000000000000000e+00  1.0804362722438128e+00 0.0000000000000000e+00 0.0000000000000000e+00  1.0726560717685119e+00 0.0000000000000000e+00 0.0000000000000000e+00  1.0667660164696917e+00 0.0000000000000000e+00 0.0000000000000000e+00  1.0639301078400869e+00 0.0000000000000000e+00 0.0000000000000000e+00  1.0628916463156124e+00 0.0000000000000000e+00 0.0000000000000000e+00  1.0641421075369164e+00 0.0000000000000000e+00 0.0000000000000000e+00  1.0664450551263980e+00 0.0000000000000000e+00 0.0000000000000000e+00  1.0689088944547007e+00 0.0000000000000000e+00 0.0000000000000000e+00  1.0695924696243704e+00 0.0000000000000000e+00 0.0000000000000000e+00  1.0690910053783893e+00 0.0000000000000000e+00 0.0000000000000000e+00  1.0666098233308674e+00 0.0000000000000000e+00 0.0000000000000000e+00  1.0626542123984823e+00 0.0000000000000000e+00 0.0000000000000000e+00  1.0580354158314951e+00 0.0000000000000000e+00 0.0000000000000000e+00  1.0545204254317673e+00 0.0000000000000000e+00 0.0000000000000000e+00  1.0513826945947016e+00 0.0000000000000000e+00 0.0000000000000000e+00  1.0511526020915885e+00 0.0000000000000000e+00 0.0000000000000000e+00  1.0516340421144874e+00 0.0000000000000000e+00 0.0000000000000000e+00  1.0543812655680020e+00 0.0000000000000000e+00 0.0000000000000000e+00  1.0577848939920227e+00 0.0000000000000000e+00 0.0000000000000000e+00  1.0617442908769548e+00 0.0000000000000000e+00 0.0000000000000000e+00  1.0642677071706454e+00 0.0000000000000000e+00 0.0000000000000000e+00  1.0646824987292485e+00 0.0000000000000000e+00 0.0000000000000000e+00  1.0636380926265372e+00 0.0000000000000000e+00 0.0000000000000000e+00  1.0561392421482763e+00 0.0000000000000000e+00 0.0000000000000000e+00  1.0521851045224075e+00 0.0000000000000000e+00 0.0000000000000000e+00  1.0481900165819913e+00 0.0000000000000000e+00 0.0000000000000000e+00  1.0472559648395785e+00 0.0000000000000000e+00 0.0000000000000000e+00  1.0491305437236911e+00 0.0000000000000000e+00 0.0000000000000000e+00  1.0516454513243743e+00 0.0000000000000000e+00 0.0000000000000000e+00  1.0536352217145519e+00 0.0000000000000000e+00 0.0000000000000000e+00  1.0582525534880936e+00 0.0000000000000000e+00 0.0000000000000000e+00  1.0621444971961131e+00 0.0000000000000000e+00 0.0000000000000000e+00  1.0636979527932968e+00 0.0000000000000000e+00 0.0000000000000000e+00  1.0636788257275180e+00 0.0000000000000000e+00 0.0000000000000000e+00  1.0613954117238744e+00 0.0000000000000000e+00 0.0000000000000000e+00  1.0566578749139932e+00 0.0000000000000000e+00 0.0000000000000000e+00  1.0519006759140261e+00 0.0000000000000000e+00 0.0000000000000000e+00  1.0472484189789624e+00 0.0000000000000000e+00 0.0000000000000000e+00  1.0429465958686850e+00 0.0000000000000000e+00 0.0000000000000000e+00  1.0419314309429866e+00 0.0000000000000000e+00 0.0000000000000000e+00  1.0430856913280044e+00 0.0000000000000000e+00 0.0000000000000000e+00  1.0453974838495572e+00 0.0000000000000000e+00 0.0000000000000000e+00  1.0500647047565121e+00 0.0000000000000000e+00 0.0000000000000000e+00  1.0550245823056368e+00 0.0000000000000000e+00 0.0000000000000000e+00  1.0583374281034057e+00 0.0000000000000000e+00 0.0000000000000000e+00  1.0613279452613937e+00 0.0000000000000000e+00 0.0000000000000000e+00  1.0619928509839323e+00 0.0000000000000000e+00 0.0000000000000000e+00  1.0593393604941097e+00 0.0000000000000000e+00 0.0000000000000000e+00  1.0552007206260838e+00 0.0000000000000000e+00 0.0000000000000000e+00  1.0500735609062930e+00 0.0000000000000000e+00 0.0000000000000000e+00  1.0447656123372244e+00 0.0000000000000000e+00 0.0000000000000000e+00  1.0411540223382740e+00 0.0000000000000000e+00 0.0000000000000000e+00  1.0396985840202990e+00 0.0000000000000000e+00 0.0000000000000000e+00  1.0404547482512643e+00 0.0000000000000000e+00 0.0000000000000000e+00  1.0444198823613480e+00 0.0000000000000000e+00 0.0000000000000000e+00  1.0491188285586883e+00 0.0000000000000000e+00 0.0000000000000000e+00  1.0554308512683934e+00 0.0000000000000000e+00 0.0000000000000000e+00  1.0627493103893331e+00 0.0000000000000000e+00 0.0000000000000000e+00  1.0694136138778696e+00 0.0000000000000000e+00 0.0000000000000000e+00  1.0744168551086131e+00 0.0000000000000000e+00 0.0000000000000000e+00  1.0775600384590718e+00 0.0000000000000000e+00 0.0000000000000000e+00  1.0797847936381317e+00 0.0000000000000000e+00 0.0000000000000000e+00  1.0817956548717507e+00 0.0000000000000000e+00 0.0000000000000000e+00  1.0824962704211729e+00 0.0000000000000000e+00 0.0000000000000000e+00  1.0829512329093842e+00 0.0000000000000000e+00 0.0000000000000000e+00  1.0848827026875907e+00 0.0000000000000000e+00 0.0000000000000000e+00  1.0851865198746982e+00 0.0000000000000000e+00 0.0000000000000000e+00  1.0860562490340329e+00 0.0000000000000000e+00 0.0000000000000000e+00  1.0858645475000881e+00 0.0000000000000000e+00 0.0000000000000000e+00  1.0838801850184789e+00 0.0000000000000000e+00 0.0000000000000000e+00  1.0806927817594789e+00 0.0000000000000000e+00 0.0000000000000000e+00  1.0764254708613021e+00 0.0000000000000000e+00 0.0000000000000000e+00  1.0708811954648187e+00 0.0000000000000000e+00 0.0000000000000000e+00  1.0636759743393116e+00 0.0000000000000000e+00 0.0000000000000000e+00  1.0568549517337971e+00 0.0000000000000000e+00 0.0000000000000000e+00  1.0491493420014204e+00 0.0000000000000000e+00 0.0000000000000000e+00  1.0341661962535675e+00 0.0000000000000000e+00 0.0000000000000000e+00  1.0276067929664858e+00 0.0000000000000000e+00 0.0000000000000000e+00  1.0223749711603636e+00 0.0000000000000000e+00 0.0000000000000000e+00  1.0176475725099021e+00 0.0000000000000000e+00 0.0000000000000000e+00  1.0137911789089926e+00 0.0000000000000000e+00 0.0000000000000000e+00  1.0107406166171167e+00 0.0000000000000000e+00 0.0000000000000000e+00  1.0084134860034331e+00 0.0000000000000000e+00 0.0000000000000000e+00  1.0061676155474952e+00 0.0000000000000000e+00 0.0000000000000000e+00  1.0045814879001513e+00 0.0000000000000000e+00 0.0000000000000000e+00  1.0034649145413932e+00 0.0000000000000000e+00 0.0000000000000000e+00  1.0021620066325023e+00 0.0000000000000000e+00 0.0000000000000000e+00  1.0018801040824779e+00 0.0000000000000000e+00 0.0000000000000000e+00  1.0006860588427871e+00 0.0000000000000000e+00 0.0000000000000000e+00  1.0005390183236986e+00 0.0000000000000000e+00 0.0000000000000000e+00  1.0000144060930047e+00 0.0000000000000000e+00 0.0000000000000000e+00  1.0006002521142747e+00 0.0000000000000000e+00 0.0000000000000000e+00  1.0002912290805772e+00 0.0000000000000000e+00 0.0000000000000000e+00  9.9980323711819274e-01 0.0000000000000000e+00 0.0000000000000000e+00  1.0000001299742769e+00 0.0000000000000000e+00 0.0000000000000000e+00  1.0000001299742769e+00 0.0000000000000000e+00 0.0000000000000000e+00  1.0000001299742769e+00 0.0000000000000000e+00 0.0000000000000000e+00  1.0000001299742769e+00 0.0000000000000000e+00 0.0000000000000000e+00  1.0000001299742769e+00 0.0000000000000000e+00 0.0000000000000000e+00  1.0000001299742769e+00 0.0000000000000000e+00 0.0000000000000000e+00  1.0000001299742769e+00 0.0000000000000000e+00 0.0000000000000000e+00  1.0000001299742769e+00 0.0000000000000000e+00 0.0000000000000000e+00  1.0000001299742769e+00 0.0000000000000000e+00 0.0000000000000000e+00  1.0000001299742769e+00 0.0000000000000000e+00 0.0000000000000000e+00  1.0000001299742769e+00 0.0000000000000000e+00 0.0000000000000000e+00  1.0000001299742769e+00 0.0000000000000000e+00 0.0000000000000000e+00  1.0000001299742769e+00 0.0000000000000000e+00 0.0000000000000000e+00  1.0000001299742769e+00 0.0000000000000000e+00 0.0000000000000000e+00  1.0000001299742769e+00 0.0000000000000000e+00 0.0000000000000000e+00  1.0000001299742769e+00 0.0000000000000000e+00 0.0000000000000000e+00  1.0000001299742769e+00 0.0000000000000000e+00 0.0000000000000000e+00  1.0000001299742769e+00 0.0000000000000000e+00 0.0000000000000000e+00  1.0000001299742769e+00 0.0000000000000000e+00 0.0000000000000000e+00  1.0000001299742769e+00 0.0000000000000000e+00 0.0000000000000000e+00  1.0386570559190116e+00 -9.4568074443204565e-03 0.0000000000000000e+00  1.0354193199622110e+00 -1.9052937455089496e-02 0.0000000000000000e+00  1.0328087019990193e+00 -2.9235455530429503e-02 0.0000000000000000e+00  1.0265681937114317e+00 -3.9773988717219544e-02 0.0000000000000000e+00  1.0199915495939327e+00 -5.4122468065886949e-02 0.0000000000000000e+00  1.0241747985364640e+00 -5.7670301450540362e-02 0.0000000000000000e+00  1.0279969375506357e+00 -6.1316021691629793e-02 0.0000000000000000e+00  1.0328046832965962e+00 -6.4704741743241631e-02 0.0000000000000000e+00  1.0378834451044998e+00 -6.7978477877401605e-02 0.0000000000000000e+00  1.0435733912732392e+00 -7.0883146404957811e-02 0.0000000000000000e+00  1.0498350091231829e+00 -7.3472797975367946e-02 0.0000000000000000e+00  1.0565300153697883e+00 -7.5458501027251934e-02 0.0000000000000000e+00  1.0637271426175172e+00 -7.6946711125391615e-02 0.0000000000000000e+00  1.0710479618349340e+00 -7.7617796070509004e-02 0.0000000000000000e+00  1.0786861559166157e+00 -7.7705090097306737e-02 0.0000000000000000e+00  1.0863585733174057e+00 -7.7099685006061000e-02 0.0000000000000000e+00  1.0941237119585188e+00 -7.5515382348482651e-02 0.0000000000000000e+00  1.1015514744764843e+00 -7.3100594565319144e-02 0.0000000000000000e+00  1.1087203732008020e+00 -7.0093820865654854e-02 0.0000000000000000e+00  1.1155067270760031e+00 -6.6394195552653260e-02 0.0000000000000000e+00  1.1217559489667057e+00 -6.2098280039299132e-02 0.0000000000000000e+00  1.1274676427855774e+00 -5.7299850717150665e-02 0.0000000000000000e+00  1.1326653714619075e+00 -5.2165564151321148e-02 0.0000000000000000e+00  1.1373219535000640e+00 -4.6566178652465547e-02 0.0000000000000000e+00  1.1414742448812834e+00 -4.0883452213950809e-02 0.0000000000000000e+00  1.1451407845895236e+00 -3.4757673290313144e-02 0.0000000000000000e+00  1.1482899593412397e+00 -2.8401444965275129e-02 0.0000000000000000e+00  1.1510816803986326e+00 -2.1862049624238575e-02 0.0000000000000000e+00  1.1533433126132300e+00 -1.5061059061338748e-02 0.0000000000000000e+00  1.1551044422314969e+00 -7.9314205995988287e-03 0.0000000000000000e+00  1.1562802940889425e+00 -4.4127629965878747e-04 0.0000000000000000e+00  1.1567819563051265e+00 7.3374699087183030e-03 0.0000000000000000e+00  1.1565217042841252e+00 1.5498225501546543e-02 0.0000000000000000e+00  1.1553656647520019e+00 2.3946795568415825e-02 0.0000000000000000e+00  1.1531929218240269e+00 3.2529111725374871e-02 0.0000000000000000e+00  1.1499320509422657e+00 4.1138635713426241e-02 0.0