<?xml version="1.0"?>
<VTKFile type="UnstructuredGrid"  version="0.1"  >
<UnstructuredGrid>
<Piece  NumberOfPoints="10199" NumberOfCells="20110">
<Points>
<DataArray  type="Float64"  NumberOfComponents="3"  format="ascii">0 -5 0  8 -5 0  30 -5 0  40 -5 0  40 5 0  30 5 0  8 5 0  0 5 0  8 -2.5 0  15 -2.5 0  30 -2.5 0  30 2.5 0  15 2.5 0  8 2.5 0  10 0.5 0  10 -0.5 0  0 0 0  0.4210526315780956 -5 0  0.8421052631563433 -5 0  1.263157894734281 -5 0  1.684210526311999 -5 0  2.105263157889717 -5 0  2.526315789467435 -5 0  2.947368421045153 -5 0  3.368421052622872 -5 0  3.78947368420059 -5 0  4.210526315779479 -5 0  4.631578947359537 -5 0  5.052631578939595 -5 0  5.473684210519653 -5 0  5.89473684209971 -5 0  6.315789473679768 -5 0  6.736842105259826 -5 0  7.157894736839884 -5 0  7.578947368419942 -5 0  8.407407407405314 -5 0  8.814814814810628 -5 0  9.222222222215942 -5 0  9.629629629621256 -5 0  10.03703703702657 -5 0  10.44444444443188 -5 0  10.8518518518372 -5 0  11.25925925924251 -5 0  11.66666666664783 -5 0  12.07407407405314 -5 0  12.48148148145846 -5 0  12.88888888886377 -5 0  13.29629629626908 -5 0  13.7037037036744 -5 0  14.11111111107971 -5 0  14.51851851848502 -5 0  14.92592592589034 -5 0  15.33333333329565 -5 0  15.74074074070096 -5 0  16.14814814810754 -5 0  16.55555555551614 -5 0  16.96296296292474 -5 0  17.37037037033335 -5 0  17.77777777774195 -5 0  18.18518518515056 -5 0  18.59259259255916 -5 0  18.99999999996776 -5 0  19.40740740737636 -5 0  19.81481481478497 -5 0  20.22222222219357 -5 0  20.62962962960217 -5 0  21.03703703701077 -5 0  21.44444444441937 -5 0  21.85185185182797 -5 0  22.25925925923657 -5 0  22.66666666664518 -5 0  23.07407407405378 -5 0  23.48148148146238 -5 0  23.88888888887098 -5 0  24.29629629627958 -5 0  24.70370370368818 -5 0  25.11111111109678 -5 0  25.51851851850539 -5 0  25.92592592591399 -5 0  26.33333333332259 -5 0  26.74074074073119 -5 0  27.14814814813979 -5 0  27.55555555554839 -5 0  27.96296296295699 -5 0  28.3703703703656 -5 0  28.7777777777742 -5 0  29.1851851851828 -5 0  29.5925925925914 -5 0  30.41666666667852 -5 0  30.83333333335704 -5 0  31.25000000003556 -5 0  31.66666666671408 -5 0  32.08333333338936 -5 0  32.50000000005308 -5 0  32.9166666667168 -5 0  33.33333333338052 -5 0  33.75000000004424 -5 0  34.16666666670795 -5 0  34.58333333337167 -5 0  35.00000000003539 -5 0  35.41666666669911 -5 0  35.83333333336282 -5 0  36.25000000002654 -5 0  36.66666666669026 -5 0  37.08333333335398 -5 0  37.50000000001769 -5 0  37.91666666668141 -5 0  38.33333333334513 -5 0  38.75000000000885 -5 0  39.16666666667257 -5 0  39.58333333333628 -5 0  40 -4.583333333332821 0  40 -4.166666666665642 0  40 -3.74999999999855 0  40 -3.333333333333135 0  40 -2.916666666667806 0  40 -2.500000000002478 0  40 -2.083333333337148 0  40 -1.666666666671818 0  40 -1.250000000006488 0  40 -0.8333333333405228 0  40 -0.4166666666733416 0  40 -6.163070054299169e-12 0  40 0.4166666666610173 0  40 0.8333333333281976 0  40 1.249999999995378 0  40 1.666666666662558 0  40 2.083333333329739 0  40 2.499999999996919 0  40 2.916666666664099 0  40 3.33333333333128 0  40 3.74999999999846 0  40 4.166666666665641 0  40 4.583333333332821 0  39.58333333333628 5 0  39.16666666667256 5 0  38.75000000000885 5 0  38.33333333334513 5 0  37.91666666668141 5 0  37.50000000001769 5 0  37.08333333335398 5 0  36.66666666669025 5 0  36.25000000002654 5 0  35.83333333336282 5 0  35.41666666669911 5 0  35.00000000003539 5 0  34.58333333337167 5 0  34.16666666670795 5 0  33.75000000004424 5 0  33.33333333338052 5 0  32.9166666667168 5 0  32.50000000005308 5 0  32.08333333338936 5 0  31.66666666671408 5 0  31.25000000003556 5 0  30.83333333335704 5 0  30.41666666667852 5 0  29.59259259259259 5 0  29.18518518518519 5 0  28.77777777777778 5 0  28.37037037037037 5 0  27.96296296296296 5 0  27.55555555555556 5 0  27.14814814814815 5 0  26.74074074074074 5 0  26.33333333333333 5 0  25.92592592592593 5 0  25.51851851851852 5 0  25.11111111111111 5 0  24.7037037037037 5 0  24.2962962962963 5 0  23.88888888888889 5 0  23.48148148148148 5 0  23.07407407407408 5 0  22.66666666666667 5 0  22.25925925925926 5 0  21.85185185185185 5 0  21.44444444444445 5 0  21.03703703703704 5 0  20.62962962962963 5 0  20.22222222222222 5 0  19.81481481481482 5 0  19.40740740740741 5 0  19 5 0  18.5925925925926 5 0  18.18518518518519 5 0  17.77777777777778 5 0  17.37037037037037 5 0  16.96296296296296 5 0  16.55555555555556 5 0  16.14814814814815 5 0  15.74074074074074 5 0  15.33333333333333 5 0  14.92592592592593 5 0  14.51851851851852 5 0  14.11111111111111 5 0  13.70370370370371 5 0  13.2962962962963 5 0  12.88888888888889 5 0  12.48148148148148 5 0  12.07407407407408 5 0  11.66666666666667 5 0  11.25925925925926 5 0  10.85185185185185 5 0  10.44444444444445 5 0  10.03703703703704 5 0  9.629629629629633 5 0  9.222222222222221 5 0  8.814814814814817 5 0  8.407407407407408 5 0  7.5789473684193 5 0  7.157894736838599 5 0  6.73684210526082 5 0  6.315789473684795 5 0  5.894736842108769 5 0  5.473684210532742 5 0  5.052631578956715 5 0  4.631578947380689 5 0  4.210526315804662 5 0  3.789473684226299 5 0  3.368421052645599 5 0  2.947368421064898 5 0  2.526315789484198 5 0  2.105263157903499 5 0  1.6842105263228 5 0  1.2631578947421 5 0  0.8421052631613994 5 0  0.4210526315806993 5 0  0 4.545454545454545 0  0 4.09090909090909 0  0 3.636363636363634 0  0 3.18181818181818 0  0 2.727272727272726 0  0 2.272727272727271 0  0 1.818181818181817 0  0 1.363636363636363 0  0 0.9090909090909092 0  0 0.454545454545455 0  0 -0.4545454545450807 0  0 -0.9090909090895867 0  0 -1.363636363633713 0  0 -1.818181818177841 0  0 -2.272727272723127 0  0 -2.727272727269273 0  0 -3.181818181815419 0  0 -3.636363636361564 0  0 -4.090909090907709 0  0 -4.545454545453855 0  8 -4.499999999999999 0  8 -3.999999999999999 0  8 -3.499999999999999 0  8 -3 0  8.137254901963859 -2.5 0  8.274509803926303 -2.5 0  8.411764705886863 -2.5 0  8.549019607849138 -2.5 0  8.686274509809513 -2.5 0  8.82352941176989 -2.5 0  8.960784313730265 -2.5 0  9.098039215690642 -2.5 0  9.235294117651017 -2.5 0  9.372549019611395 -2.5 0  9.50980392157177 -2.5 0  9.647058823532147 -2.5 0  9.784313725492522 -2.5 0  9.921568627452897 -2.5 0  10.05882352941327 -2.5 0  10.19607843137365 -2.5 0  10.33333333333402 -2.5 0  10.4705882352944 -2.5 0  10.60784313725478 -2.5 0  10.74509803921515 -2.5 0  10.88235294117553 -2.5 0  11.0196078431359 -2.5 0  11.15686274509628 -2.5 0  11.29411764705665 -2.5 0  11.43137254901703 -2.5 0  11.56862745097915 -2.5 0  11.70588235294301 -2.5 0  11.84313725490686 -2.5 0  11.98039215687072 -2.5 0  12.11764705883209 -2.5 0  12.25490196079247 -2.5 0  12.39215686275285 -2.5 0  12.52941176471322 -2.5 0  12.6666666666736 -2.5 0  12.80392156863397 -2.5 0  12.94117647059435 -2.5 0  13.07843137255473 -2.5 0  13.2156862745151 -2.5 0  13.35294117647548 -2.5 0  13.49019607843586 -2.5 0  13.62745098039623 -2.5 0  13.76470588235661 -2.5 0  13.90196078431699 -2.5 0  14.03921568627736 -2.5 0  14.17647058823774 -2.5 0  14.31372549019812 -2.5 0  14.45098039215849 -2.5 0  14.58823529411887 -2.5 0  14.72549019607925 -2.5 0  14.86274509803962 -2.5 0  15.20270270270254 -2.5 0  15.40540540540509 -2.5 0  15.60810810810763 -2.5 0  15.81081081081017 -2.5 0  16.01351351351227 -2.5 0  16.21621621621265 -2.5 0  16.41891891891279 -2.5 0  16.62162162161294 -2.5 0  16.82432432431308 -2.5 0  17.02702702701322 -2.5 0  17.22972972971337 -2.5 0  17.43243243241351 -2.5 0  17.63513513511365 -2.5 0  17.83783783781379 -2.5 0  18.04054054051394 -2.5 0  18.24324324321408 -2.5 0  18.44594594591422 -2.5 0  18.64864864861436 -2.5 0  18.85135135131451 -2.5 0  19.05405405401465 -2.5 0  19.25675675671479 -2.5 0  19.45945945941494 -2.5 0  19.66216216211508 -2.5 0  19.86486486481522 -2.5 0  20.06756756751536 -2.5 0  20.27027027021551 -2.5 0  20.47297297291565 -2.5 0  20.6756756756158 -2.5 0  20.87837837831594 -2.5 0  21.08108108101608 -2.5 0  21.28378378371622 -2.5 0  21.48648648641637 -2.5 0  21.68918918911651 -2.5 0  21.89189189181666 -2.5 0  22.0945945945168 -2.5 0  22.29729729721694 -2.5 0  22.49999999991778 -2.5 0  22.70270270262203 -2.5 0  22.90540540532697 -2.5 0  23.10810810803191 -2.5 0  23.31081081073686 -2.5 0  23.5135135134418 -2.5 0  23.71621621614674 -2.5 0  23.91891891885169 -2.5 0  24.12162162155663 -2.5 0  24.32432432426158 -2.5 0  24.52702702696652 -2.5 0  24.72972972967146 -2.5 0  24.93243243237641 -2.5 0  25.13513513508135 -2.5 0  25.3378378377863 -2.5 0  25.54054054049124 -2.5 0  25.74324324319618 -2.5 0  25.94594594590112 -2.5 0  26.14864864860607 -2.5 0  26.35135135131101 -2.5 0  26.55405405401596 -2.5 0  26.7567567567209 -2.5 0  26.95945945942584 -2.5 0  27.16216216213079 -2.5 0  27.36486486483573 -2.5 0  27.56756756754068 -2.5 0  27.77027027024562 -2.5 0  27.97297297295056 -2.5 0  28.1756756756555 -2.5 0  28.37837837836045 -2.5 0  28.5810810810654 -2.5 0  28.78378378377034 -2.5 0  28.98648648647528 -2.5 0  29.18918918918023 -2.5 0  29.39189189188517 -2.5 0  29.59459459459011 -2.5 0  29.79729729729506 -2.5 0  30 -3.000000000000001 0  30 -3.500000000000001 0  30 -4.000000000000001 0  30 -4.5 0  8 4.499999999999999 0  8 3.999999999999999 0  8 3.499999999999999 0  8 3 0  8.137254901963859 2.5 0  8.274509803926303 2.5 0  8.411764705886863 2.5 0  8.549019607849138 2.5 0  8.686274509809513 2.5 0  8.82352941176989 2.5 0  8.960784313730265 2.5 0  9.098039215690642 2.5 0  9.235294117651017 2.5 0  9.372549019611395 2.5 0  9.50980392157177 2.5 0  9.647058823532147 2.5 0  9.784313725492522 2.5 0  9.921568627452897 2.5 0  10.05882352941327 2.5 0  10.19607843137365 2.5 0  10.33333333333402 2.5 0  10.4705882352944 2.5 0  10.60784313725478 2.5 0  10.74509803921515 2.5 0  10.88235294117553 2.5 0  11.0196078431359 2.5 0  11.15686274509628 2.5 0  11.29411764705665 2.5 0  11.43137254901703 2.5 0  11.56862745097915 2.5 0  11.70588235294301 2.5 0  11.84313725490686 2.5 0  11.98039215687072 2.5 0  12.11764705883209 2.5 0  12.25490196079247 2.5 0  1
[...]
<PointData  Vectors="f_17"> 
<DataArray  type="Float64"  Name="f_17"  NumberOfComponents="3" format="ascii">1.0000001323764007e+00 0.0000000000000000e+00 0.0000000000000000e+00  1.0426545380388825e+00 0.0000000000000000e+00 0.0000000000000000e+00  1.0574194622341453e+00 0.0000000000000000e+00 0.0000000000000000e+00  1.0844496549686879e+00 0.0000000000000000e+00 0.0000000000000000e+00  1.0812616981625593e+00 0.0000000000000000e+00 0.0000000000000000e+00  1.0567573503075969e+00 0.0000000000000000e+00 0.0000000000000000e+00  1.0382581337775398e+00 0.0000000000000000e+00 0.0000000000000000e+00  1.0000001323764007e+00 0.0000000000000000e+00 0.0000000000000000e+00  1.0254795110690751e+00 -5.2102067604847480e-02 0.0000000000000000e+00  1.1387939090362329e+00 -6.6255663577194368e-04 0.0000000000000000e+00  1.0940641730733109e+00 -8.9349382815935033e-02 0.0000000000000000e+00  1.0418836711492463e+00 -7.9813955574132081e-02 0.0000000000000000e+00  9.9316552309828787e-01 -4.9504048681298866e-02 0.0000000000000000e+00  1.0173159272659456e+00 4.9553313214387454e-02 0.0000000000000000e+00  0.0000000000000000e+00 0.0000000000000000e+00 0.0000000000000000e+00  0.0000000000000000e+00 0.0000000000000000e+00 0.0000000000000000e+00  1.0000001323764007e+00 0.0000000000000000e+00 0.0000000000000000e+00  9.9930111136663158e-01 0.0000000000000000e+00 0.0000000000000000e+00  9.9878273880935331e-01 0.0000000000000000e+00 0.0000000000000000e+00  1.0008901564888635e+00 0.0000000000000000e+00 0.0000000000000000e+00  1.0007991151749158e+00 0.0000000000000000e+00 0.0000000000000000e+00  1.0018988690144430e+00 0.0000000000000000e+00 0.0000000000000000e+00  1.0023679401211538e+00 0.0000000000000000e+00 0.0000000000000000e+00  1.0028249774532758e+00 0.0000000000000000e+00 0.0000000000000000e+00  1.0038001283831028e+00 0.0000000000000000e+00 0.0000000000000000e+00  1.0051605478617933e+00 0.0000000000000000e+00 0.0000000000000000e+00  1.0063831027566448e+00 0.0000000000000000e+00 0.0000000000000000e+00  1.0079339485262442e+00 0.0000000000000000e+00 0.0000000000000000e+00  1.0102017274839954e+00 0.0000000000000000e+00 0.0000000000000000e+00  1.0125722729538083e+00 0.0000000000000000e+00 0.0000000000000000e+00  1.0165089808097862e+00 0.0000000000000000e+00 0.0000000000000000e+00  1.0182298573158046e+00 0.0000000000000000e+00 0.0000000000000000e+00  1.0227722350969697e+00 0.0000000000000000e+00 0.0000000000000000e+00  1.0294854539872882e+00 0.0000000000000000e+00 0.0000000000000000e+00  1.0348462463926653e+00 0.0000000000000000e+00 0.0000000000000000e+00  1.0503964831276082e+00 0.0000000000000000e+00 0.0000000000000000e+00  1.0583948749319210e+00 0.0000000000000000e+00 0.0000000000000000e+00  1.0655609734779736e+00 0.0000000000000000e+00 0.0000000000000000e+00  1.0728249923269155e+00 0.0000000000000000e+00 0.0000000000000000e+00  1.0781984673080480e+00 0.0000000000000000e+00 0.0000000000000000e+00  1.0824008749992691e+00 0.0000000000000000e+00 0.0000000000000000e+00  1.0857854396700097e+00 0.0000000000000000e+00 0.0000000000000000e+00  1.0863761989582110e+00 0.0000000000000000e+00 0.0000000000000000e+00  1.0861334154509106e+00 0.0000000000000000e+00 0.0000000000000000e+00  1.0847229010179713e+00 0.0000000000000000e+00 0.0000000000000000e+00  1.0832964682073996e+00 0.0000000000000000e+00 0.0000000000000000e+00  1.0809812430085395e+00 0.0000000000000000e+00 0.0000000000000000e+00  1.0800964725579796e+00 0.0000000000000000e+00 0.0000000000000000e+00  1.0795001513725808e+00 0.0000000000000000e+00 0.0000000000000000e+00  1.0788107643315235e+00 0.0000000000000000e+00 0.0000000000000000e+00  1.0780998167578248e+00 0.0000000000000000e+00 0.0000000000000000e+00  1.0763070062414473e+00 0.0000000000000000e+00 0.0000000000000000e+00  1.0731493116487567e+00 0.0000000000000000e+00 0.0000000000000000e+00  1.0680672991439375e+00 0.0000000000000000e+00 0.0000000000000000e+00  1.0613915538761811e+00 0.0000000000000000e+00 0.0000000000000000e+00  1.0550713660672939e+00 0.0000000000000000e+00 0.0000000000000000e+00  1.0493613220167828e+00 0.0000000000000000e+00 0.0000000000000000e+00  1.0434659452907302e+00 0.0000000000000000e+00 0.0000000000000000e+00  1.0404056898278780e+00 0.0000000000000000e+00 0.0000000000000000e+00  1.0395682972403337e+00 0.0000000000000000e+00 0.0000000000000000e+00  1.0411790723811869e+00 0.0000000000000000e+00 0.0000000000000000e+00  1.0453765386956277e+00 0.0000000000000000e+00 0.0000000000000000e+00  1.0504492604231448e+00 0.0000000000000000e+00 0.0000000000000000e+00  1.0557017641421105e+00 0.0000000000000000e+00 0.0000000000000000e+00  1.0604096835487864e+00 0.0000000000000000e+00 0.0000000000000000e+00  1.0622352188580844e+00 0.0000000000000000e+00 0.0000000000000000e+00  1.0615727884942177e+00 0.0000000000000000e+00 0.0000000000000000e+00  1.0599978871749147e+00 0.0000000000000000e+00 0.0000000000000000e+00  1.0557483941398951e+00 0.0000000000000000e+00 0.0000000000000000e+00  1.0506728953370787e+00 0.0000000000000000e+00 0.0000000000000000e+00  1.0470093966313940e+00 0.0000000000000000e+00 0.0000000000000000e+00  1.0438802868225985e+00 0.0000000000000000e+00 0.0000000000000000e+00  1.0425975852650560e+00 0.0000000000000000e+00 0.0000000000000000e+00  1.0450705113763290e+00 0.0000000000000000e+00 0.0000000000000000e+00  1.0484173131575822e+00 0.0000000000000000e+00 0.0000000000000000e+00  1.0528525935716344e+00 0.0000000000000000e+00 0.0000000000000000e+00  1.0583086202866063e+00 0.0000000000000000e+00 0.0000000000000000e+00  1.0621544086740455e+00 0.0000000000000000e+00 0.0000000000000000e+00  1.0641953659330887e+00 0.0000000000000000e+00 0.0000000000000000e+00  1.0646898570551964e+00 0.0000000000000000e+00 0.0000000000000000e+00  1.0622355163086648e+00 0.0000000000000000e+00 0.0000000000000000e+00  1.0580426135703809e+00 0.0000000000000000e+00 0.0000000000000000e+00  1.0558041740063075e+00 0.0000000000000000e+00 0.0000000000000000e+00  1.0521274398517357e+00 0.0000000000000000e+00 0.0000000000000000e+00  1.0481200189099966e+00 0.0000000000000000e+00 0.0000000000000000e+00  1.0471816912541969e+00 0.0000000000000000e+00 0.0000000000000000e+00  1.0497127913059070e+00 0.0000000000000000e+00 0.0000000000000000e+00  1.0530159710480200e+00 0.0000000000000000e+00 0.0000000000000000e+00  1.0615789412002270e+00 0.0000000000000000e+00 0.0000000000000000e+00  1.0638199059082889e+00 0.0000000000000000e+00 0.0000000000000000e+00  1.0643011998595624e+00 0.0000000000000000e+00 0.0000000000000000e+00  1.0638081944667399e+00 0.0000000000000000e+00 0.0000000000000000e+00  1.0613705603344574e+00 0.0000000000000000e+00 0.0000000000000000e+00  1.0576893803405931e+00 0.0000000000000000e+00 0.0000000000000000e+00  1.0538953021793769e+00 0.0000000000000000e+00 0.0000000000000000e+00  1.0515722503428804e+00 0.0000000000000000e+00 0.0000000000000000e+00  1.0508905184900097e+00 0.0000000000000000e+00 0.0000000000000000e+00  1.0518362690664815e+00 0.0000000000000000e+00 0.0000000000000000e+00  1.0550514427033066e+00 0.0000000000000000e+00 0.0000000000000000e+00  1.0592535777012244e+00 0.0000000000000000e+00 0.0000000000000000e+00  1.0633090055134407e+00 0.0000000000000000e+00 0.0000000000000000e+00  1.0671602782871672e+00 0.0000000000000000e+00 0.0000000000000000e+00  1.0694326690194313e+00 0.0000000000000000e+00 0.0000000000000000e+00  1.0705330632351682e+00 0.0000000000000000e+00 0.0000000000000000e+00  1.0691413311020723e+00 0.0000000000000000e+00 0.0000000000000000e+00  1.0674642077424665e+00 0.0000000000000000e+00 0.0000000000000000e+00  1.0655288203759892e+00 0.0000000000000000e+00 0.0000000000000000e+00  1.0652571977059910e+00 0.0000000000000000e+00 0.0000000000000000e+00  1.0662727098498659e+00 0.0000000000000000e+00 0.0000000000000000e+00  1.0704835626360703e+00 0.0000000000000000e+00 0.0000000000000000e+00  1.0761876119874059e+00 0.0000000000000000e+00 0.0000000000000000e+00  1.0847724663483567e+00 -8.8136670833522442e-03 0.0000000000000000e+00  1.0847225893605261e+00 -1.9303573734197246e-02 0.0000000000000000e+00  1.0838799319947197e+00 -3.3135982719451208e-02 0.0000000000000000e+00  1.0792560845042434e+00 -5.2550672269681402e-02 0.0000000000000000e+00  1.0725883862082966e+00 -8.3780432806464522e-02 0.0000000000000000e+00  1.0624693567941912e+00 -1.2882081618258656e-01 0.0000000000000000e+00  1.0377824156296234e+00 -1.9159942140389380e-01 0.0000000000000000e+00  9.8215501051422971e-01 -2.4928150596632054e-01 0.0000000000000000e+00  8.9661223446371130e-01 -2.8959905876660785e-01 0.0000000000000000e+00  8.0848401527458869e-01 -3.0349863940826516e-01 0.0000000000000000e+00  7.5051142464145981e-01 -2.9825857644552739e-01 0.0000000000000000e+00  7.4156943477705983e-01 -2.8413303437271153e-01 0.0000000000000000e+00  7.7937655382552828e-01 -2.6911558529737484e-01 0.0000000000000000e+00  8.5518529163041235e-01 -2.5093361689052734e-01 0.0000000000000000e+00  9.4747600926668707e-01 -2.2147015777385684e-01 0.0000000000000000e+00  1.0289085241256346e+00 -1.7119202777279013e-01 0.0000000000000000e+00  1.0769099378475115e+00 -1.1966938881083042e-01 0.0000000000000000e+00  1.0952721985217708e+00 -7.1774888870116876e-02 0.0000000000000000e+00  1.0946937817237248e+00 -4.0548044679062777e-02 0.0000000000000000e+00  1.0901323436547812e+00 -2.0708120194567810e-02 0.0000000000000000e+00  1.0861346236818867e+00 -1.0177243987401488e-02 0.0000000000000000e+00  1.0842379361082635e+00 -4.8246926740235455e-03 0.0000000000000000e+00  1.0823497906533630e+00 -1.9471528988396433e-03 0.0000000000000000e+00  1.0824229393873275e+00 0.0000000000000000e+00 0.0000000000000000e+00  1.0825035632880655e+00 0.0000000000000000e+00 0.0000000000000000e+00  1.0807965848068357e+00 0.0000000000000000e+00 0.0000000000000000e+00  1.0774635459911250e+00 0.0000000000000000e+00 0.0000000000000000e+00  1.0720526630792542e+00 0.0000000000000000e+00 0.0000000000000000e+00  1.0666080103317994e+00 0.0000000000000000e+00 0.0000000000000000e+00  1.0617574516197084e+00 0.0000000000000000e+00 0.0000000000000000e+00  1.0584764708925329e+00 0.0000000000000000e+00 0.0000000000000000e+00  1.0565783973910789e+00 0.0000000000000000e+00 0.0000000000000000e+00  1.0570561120425646e+00 0.0000000000000000e+00 0.0000000000000000e+00  1.0592056688850850e+00 0.0000000000000000e+00 0.0000000000000000e+00  1.0620791686669533e+00 0.0000000000000000e+00 0.0000000000000000e+00  1.0649463331421538e+00 0.0000000000000000e+00 0.0000000000000000e+00  1.0674473771687523e+00 0.0000000000000000e+00 0.0000000000000000e+00  1.0674701367400343e+00 0.0000000000000000e+00 0.0000000000000000e+00  1.0666003832675275e+00 0.0000000000000000e+00 0.0000000000000000e+00  1.0627640566660383e+00 0.0000000000000000e+00 0.0000000000000000e+00  1.0585310038979774e+00 0.0000000000000000e+00 0.0000000000000000e+00  1.0541622970033735e+00 0.0000000000000000e+00 0.0000000000000000e+00  1.0512982420833217e+00 0.0000000000000000e+00 0.0000000000000000e+00  1.0499551720505784e+00 0.0000000000000000e+00 0.0000000000000000e+00  1.0502946598792275e+00 0.0000000000000000e+00 0.0000000000000000e+00  1.0529893339946477e+00 0.0000000000000000e+00 0.0000000000000000e+00  1.0598722933095224e+00 0.0000000000000000e+00 0.0000000000000000e+00  1.0630742292136912e+00 0.0000000000000000e+00 0.0000000000000000e+00  1.0635289811005502e+00 0.0000000000000000e+00 0.0000000000000000e+00  1.0634846819255930e+00 0.0000000000000000e+00 0.0000000000000000e+00  1.0623140974035130e+00 0.0000000000000000e+00 0.0000000000000000e+00  1.0586127485943111e+00 0.0000000000000000e+00 0.0000000000000000e+00  1.0524812315003387e+00 0.0000000000000000e+00 0.0000000000000000e+00  1.0492519368399467e+00 0.0000000000000000e+00 0.0000000000000000e+00  1.0472459535090872e+00 0.0000000000000000e+00 0.0000000000000000e+00  1.0463021001788140e+00 0.0000000000000000e+00 0.0000000000000000e+00  1.0480056201488779e+00 0.0000000000000000e+00 0.0000000000000000e+00  1.0513973195039696e+00 0.0000000000000000e+00 0.0000000000000000e+00  1.0549885775436425e+00 0.0000000000000000e+00 0.0000000000000000e+00  1.0592263537804016e+00 0.0000000000000000e+00 0.0000000000000000e+00  1.0621545122297116e+00 0.0000000000000000e+00 0.0000000000000000e+00  1.0622856147822317e+00 0.0000000000000000e+00 0.0000000000000000e+00  1.0612243233691334e+00 0.0000000000000000e+00 0.0000000000000000e+00  1.0578982916188426e+00 0.0000000000000000e+00 0.0000000000000000e+00  1.0521802262783577e+00 0.0000000000000000e+00 0.0000000000000000e+00  1.0471059184901115e+00 0.0000000000000000e+00 0.0000000000000000e+00  1.0426042858189859e+00 0.0000000000000000e+00 0.0000000000000000e+00  1.0387193073844856e+00 0.0000000000000000e+00 0.0000000000000000e+00  1.0387178097477132e+00 0.0000000000000000e+00 0.0000000000000000e+00  1.0409595282723556e+00 0.0000000000000000e+00 0.0000000000000000e+00  1.0445358757070109e+00 0.0000000000000000e+00 0.0000000000000000e+00  1.0497848027909800e+00 0.0000000000000000e+00 0.0000000000000000e+00  1.0554008798141998e+00 0.0000000000000000e+00 0.0000000000000000e+00  1.0598190615884588e+00 0.0000000000000000e+00 0.0000000000000000e+00  1.0630030866288867e+00 0.0000000000000000e+00 0.0000000000000000e+00  1.0639930175188319e+00 0.0000000000000000e+00 0.0000000000000000e+00  1.0626289692945787e+00 0.0000000000000000e+00 0.0000000000000000e+00  1.0604259531770108e+00 0.0000000000000000e+00 0.0000000000000000e+00  1.0565314789934732e+00 0.0000000000000000e+00 0.0000000000000000e+00  1.0534899830938724e+00 0.0000000000000000e+00 0.0000000000000000e+00  1.0527791544146459e+00 0.0000000000000000e+00 0.0000000000000000e+00  1.0540310392169563e+00 0.0000000000000000e+00 0.0000000000000000e+00  1.0570669156986838e+00 0.0000000000000000e+00 0.0000000000000000e+00  1.0618154030579179e+00 0.0000000000000000e+00 0.0000000000000000e+00  1.0684064125961894e+00 0.0000000000000000e+00 0.0000000000000000e+00  1.0764839790343839e+00 0.0000000000000000e+00 0.0000000000000000e+00  1.0837025764451096e+00 0.0000000000000000e+00 0.0000000000000000e+00  1.0896962828443830e+00 0.0000000000000000e+00 0.0000000000000000e+00  1.0955834091212189e+00 0.0000000000000000e+00 0.0000000000000000e+00  1.0977465294132147e+00 0.0000000000000000e+00 0.0000000000000000e+00  1.0986203500017706e+00 0.0000000000000000e+00 0.0000000000000000e+00  1.0968895008651847e+00 0.0000000000000000e+00 0.0000000000000000e+00  1.0925569210312096e+00 0.0000000000000000e+00 0.0000000000000000e+00  1.0866111497893529e+00 0.0000000000000000e+00 0.0000000000000000e+00  1.0796341912523961e+00 0.0000000000000000e+00 0.0000000000000000e+00  1.0718154708290784e+00 0.0000000000000000e+00 0.0000000000000000e+00  1.0627809179533896e+00 0.0000000000000000e+00 0.0000000000000000e+00  1.0547138096561863e+00 0.0000000000000000e+00 0.0000000000000000e+00  1.0462193547400429e+00 0.0000000000000000e+00 0.0000000000000000e+00  1.0306757564656901e+00 0.0000000000000000e+00 0.0000000000000000e+00  1.0241693427509297e+00 0.0000000000000000e+00 0.0000000000000000e+00  1.0190633364828072e+00 0.0000000000000000e+00 0.0000000000000000e+00  1.0145124530641463e+00 0.0000000000000000e+00 0.0000000000000000e+00  1.0108035164334808e+00 0.0000000000000000e+00 0.0000000000000000e+00  1.0078976458833124e+00 0.0000000000000000e+00 0.0000000000000000e+00  1.0057252133357930e+00 0.0000000000000000e+00 0.0000000000000000e+00  1.0036294402369506e+00 0.0000000000000000e+00 0.0000000000000000e+00  1.0022628710172756e+00 0.0000000000000000e+00 0.0000000000000000e+00  1.0013758336549856e+00 0.0000000000000000e+00 0.0000000000000000e+00  1.0003787996616700e+00 0.0000000000000000e+00 0.0000000000000000e+00  1.0004281440345613e+00 0.0000000000000000e+00 0.0000000000000000e+00  9.9959409360727292e-01 0.0000000000000000e+00 0.0000000000000000e+00  9.9977559633771351e-01 0.0000000000000000e+00 0.0000000000000000e+00  9.9954952223165994e-01 0.0000000000000000e+00 0.0000000000000000e+00  1.0003677726710278e+00 0.0000000000000000e+00 0.0000000000000000e+00  1.0002054631593371e+00 0.0000000000000000e+00 0.0000000000000000e+00  9.9979211740041607e-01 0.0000000000000000e+00 0.0000000000000000e+00  1.0000001323764007e+00 0.0000000000000000e+00 0.0000000000000000e+00  1.0000001323764007e+00 0.0000000000000000e+00 0.0000000000000000e+00  1.0000001323764007e+00 0.0000000000000000e+00 0.0000000000000000e+00  1.0000001323764007e+00 0.0000000000000000e+00 0.0000000000000000e+00  1.0000001323764007e+00 0.0000000000000000e+00 0.0000000000000000e+00  1.0000001323764007e+00 0.0000000000000000e+00 0.0000000000000000e+00  1.0000001323764007e+00 0.0000000000000000e+00 0.0000000000000000e+00  1.0000001323764007e+00 0.0000000000000000e+00 0.0000000000000000e+00  1.0000001323764007e+00 0.0000000000000000e+00 0.0000000000000000e+00  1.0000001323764007e+00 0.0000000000000000e+00 0.0000000000000000e+00  1.0000001323764007e+00 0.0000000000000000e+00 0.0000000000000000e+00  1.0000001323764007e+00 0.0000000000000000e+00 0.0000000000000000e+00  1.0000001323764007e+00 0.0000000000000000e+00 0.0000000000000000e+00  1.0000001323764007e+00 0.0000000000000000e+00 0.0000000000000000e+00  1.0000001323764007e+00 0.0000000000000000e+00 0.0000000000000000e+00  1.0000001323764007e+00 0.0000000000000000e+00 0.0000000000000000e+00  1.0000001323764007e+00 0.0000000000000000e+00 0.0000000000000000e+00  1.0000001323764007e+00 0.0000000000000000e+00 0.0000000000000000e+00  1.0000001323764007e+00 0.0000000000000000e+00 0.0000000000000000e+00  1.0000001323764007e+00 0.0000000000000000e+00 0.0000000000000000e+00  1.0421693718540108e+00 -9.1580478598325375e-03 0.0000000000000000e+00  1.0395684330249315e+00 -1.8596226363472478e-02 0.0000000000000000e+00  1.0379635561034166e+00 -2.9061493832405375e-02 0.0000000000000000e+00  1.0330919910921861e+00 -4.0233191750249385e-02 0.0000000000000000e+00  1.0284470796251397e+00 -5.5572138093480411e-02 0.0000000000000000e+00  1.0332148667628966e+00 -5.8623689164196933e-02 0.0000000000000000e+00  1.0375614754231006e+00 -6.1683408915112432e-02 0.0000000000000000e+00  1.0429471005150839e+00 -6.4344985513635294e-02 0.0000000000000000e+00  1.0485682415616577e+00 -6.6768935640913907e-02 0.0000000000000000e+00  1.0547994516878532e+00 -6.8663730163829470e-02 0.0000000000000000e+00  1.0615725028642280e+00 -7.0097168833978776e-02 0.0000000000000000e+00  1.0687260435198991e+00 -7.0744545159381611e-02 0.0000000000000000e+00  1.0763283698606747e+00 -7.0712067518444555e-02 0.0000000000000000e+00  1.0839353064864665e+00 -6.9654577793174133e-02 0.0000000000000000e+00  1.0917515897623213e+00 -6.7823157705110937e-02 0.0000000000000000e+00  1.0994284954205034e+00 -6.5101362440677976e-02 0.0000000000000000e+00  1.1070145467771921e+00 -6.1165052703812818e-02 0.0000000000000000e+00  1.1139856146488476e+00 -5.6166353531113586e-02 0.0000000000000000e+00  1.1203846162683000e+00 -5.0392031129237486e-02 0.0000000000000000e+00  1.1260330608052842e+00 -4.3741344789007201e-02 0.0000000000000000e+00  1.1306578000183469e+00 -3.6306468662877331e-02 0.0000000000000000e+00  1.1342242034975343e+00 -2.8295722161937389e-02 0.0000000000000000e+00  1.1366096028353692e+00 -1.9926896923854132e-02 0.0000000000000000e+00  1.1377616612051296e+00 -1.1113228042796906e-02 0.0000000000000000e+00  1.1376258055108928e+00 -2.5434589364936094e-03 0.0000000000000000e+00  1.1361976060404584e+00 6.1285339657287047e-03 0.0000000000000000e+00  1.1333195792994670e+00 1.4486817989302856e-02 0.0000000000000000e+00  1.1293901973106797e+00 2.2132888164350679e-02 0.0000000000000000e+00  1.1241486463811301e+00 2.8944001093751087e-02 0.0000000000000000e+00  1.1179120686398540e+00 3.4796109974797144e-02 0.0000000000000000e+00  1.1107744914401874e+00 3.9528521904325882e-02 0.0000000000000000e+00  1.1029532693866346e+00 4.2789776401969681e-02 0.0000000000000000e+00  1.0946459800816406e+00 4.4708619918086667e-02 0.0000000000000000e+00  1.0861342114751440e+00 4.5203766336924189e-02 0.0000000000000000e+00  1.0777668147679651e+00 4.4034424372206601e-02 0.0000000000000000e+00  1.0697016002250230e+00 4.1390