<?xml version="1.0"?>
<VTKFile type="UnstructuredGrid"  version="0.1"  >
<UnstructuredGrid>
<Piece  NumberOfPoints="10199" NumberOfCells="20110">
<Points>
<DataArray  type="Float64"  NumberOfComponents="3"  format="ascii">0 -5 0  8 -5 0  30 -5 0  40 -5 0  40 5 0  30 5 0  8 5 0  0 5 0  8 -2.5 0  15 -2.5 0  30 -2.5 0  30 2.5 0  15 2.5 0  8 2.5 0  10 0.5 0  10 -0.5 0  0 0 0  0.4210526315780956 -5 0  0.8421052631563433 -5 0  1.263157894734281 -5 0  1.684210526311999 -5 0  2.105263157889717 -5 0  2.526315789467435 -5 0  2.947368421045153 -5 0  3.368421052622872 -5 0  3.78947368420059 -5 0  4.210526315779479 -5 0  4.631578947359537 -5 0  5.052631578939595 -5 0  5.473684210519653 -5 0  5.89473684209971 -5 0  6.315789473679768 -5 0  6.736842105259826 -5 0  7.157894736839884 -5 0  7.578947368419942 -5 0  8.407407407405314 -5 0  8.814814814810628 -5 0  9.222222222215942 -5 0  9.629629629621256 -5 0  10.03703703702657 -5 0  10.44444444443188 -5 0  10.8518518518372 -5 0  11.25925925924251 -5 0  11.66666666664783 -5 0  12.07407407405314 -5 0  12.48148148145846 -5 0  12.88888888886377 -5 0  13.29629629626908 -5 0  13.7037037036744 -5 0  14.11111111107971 -5 0  14.51851851848502 -5 0  14.92592592589034 -5 0  15.33333333329565 -5 0  15.74074074070096 -5 0  16.14814814810754 -5 0  16.55555555551614 -5 0  16.96296296292474 -5 0  17.37037037033335 -5 0  17.77777777774195 -5 0  18.18518518515056 -5 0  18.59259259255916 -5 0  18.99999999996776 -5 0  19.40740740737636 -5 0  19.81481481478497 -5 0  20.22222222219357 -5 0  20.62962962960217 -5 0  21.03703703701077 -5 0  21.44444444441937 -5 0  21.85185185182797 -5 0  22.25925925923657 -5 0  22.66666666664518 -5 0  23.07407407405378 -5 0  23.48148148146238 -5 0  23.88888888887098 -5 0  24.29629629627958 -5 0  24.70370370368818 -5 0  25.11111111109678 -5 0  25.51851851850539 -5 0  25.92592592591399 -5 0  26.33333333332259 -5 0  26.74074074073119 -5 0  27.14814814813979 -5 0  27.55555555554839 -5 0  27.96296296295699 -5 0  28.3703703703656 -5 0  28.7777777777742 -5 0  29.1851851851828 -5 0  29.5925925925914 -5 0  30.41666666667852 -5 0  30.83333333335704 -5 0  31.25000000003556 -5 0  31.66666666671408 -5 0  32.08333333338936 -5 0  32.50000000005308 -5 0  32.9166666667168 -5 0  33.33333333338052 -5 0  33.75000000004424 -5 0  34.16666666670795 -5 0  34.58333333337167 -5 0  35.00000000003539 -5 0  35.41666666669911 -5 0  35.83333333336282 -5 0  36.25000000002654 -5 0  36.66666666669026 -5 0  37.08333333335398 -5 0  37.50000000001769 -5 0  37.91666666668141 -5 0  38.33333333334513 -5 0  38.75000000000885 -5 0  39.16666666667257 -5 0  39.58333333333628 -5 0  40 -4.583333333332821 0  40 -4.166666666665642 0  40 -3.74999999999855 0  40 -3.333333333333135 0  40 -2.916666666667806 0  40 -2.500000000002478 0  40 -2.083333333337148 0  40 -1.666666666671818 0  40 -1.250000000006488 0  40 -0.8333333333405228 0  40 -0.4166666666733416 0  40 -6.163070054299169e-12 0  40 0.4166666666610173 0  40 0.8333333333281976 0  40 1.249999999995378 0  40 1.666666666662558 0  40 2.083333333329739 0  40 2.499999999996919 0  40 2.916666666664099 0  40 3.33333333333128 0  40 3.74999999999846 0  40 4.166666666665641 0  40 4.583333333332821 0  39.58333333333628 5 0  39.16666666667256 5 0  38.75000000000885 5 0  38.33333333334513 5 0  37.91666666668141 5 0  37.50000000001769 5 0  37.08333333335398 5 0  36.66666666669025 5 0  36.25000000002654 5 0  35.83333333336282 5 0  35.41666666669911 5 0  35.00000000003539 5 0  34.58333333337167 5 0  34.16666666670795 5 0  33.75000000004424 5 0  33.33333333338052 5 0  32.9166666667168 5 0  32.50000000005308 5 0  32.08333333338936 5 0  31.66666666671408 5 0  31.25000000003556 5 0  30.83333333335704 5 0  30.41666666667852 5 0  29.59259259259259 5 0  29.18518518518519 5 0  28.77777777777778 5 0  28.37037037037037 5 0  27.96296296296296 5 0  27.55555555555556 5 0  27.14814814814815 5 0  26.74074074074074 5 0  26.33333333333333 5 0  25.92592592592593 5 0  25.51851851851852 5 0  25.11111111111111 5 0  24.7037037037037 5 0  24.2962962962963 5 0  23.88888888888889 5 0  23.48148148148148 5 0  23.07407407407408 5 0  22.66666666666667 5 0  22.25925925925926 5 0  21.85185185185185 5 0  21.44444444444445 5 0  21.03703703703704 5 0  20.62962962962963 5 0  20.22222222222222 5 0  19.81481481481482 5 0  19.40740740740741 5 0  19 5 0  18.5925925925926 5 0  18.18518518518519 5 0  17.77777777777778 5 0  17.37037037037037 5 0  16.96296296296296 5 0  16.55555555555556 5 0  16.14814814814815 5 0  15.74074074074074 5 0  15.33333333333333 5 0  14.92592592592593 5 0  14.51851851851852 5 0  14.11111111111111 5 0  13.70370370370371 5 0  13.2962962962963 5 0  12.88888888888889 5 0  12.48148148148148 5 0  12.07407407407408 5 0  11.66666666666667 5 0  11.25925925925926 5 0  10.85185185185185 5 0  10.44444444444445 5 0  10.03703703703704 5 0  9.629629629629633 5 0  9.222222222222221 5 0  8.814814814814817 5 0  8.407407407407408 5 0  7.5789473684193 5 0  7.157894736838599 5 0  6.73684210526082 5 0  6.315789473684795 5 0  5.894736842108769 5 0  5.473684210532742 5 0  5.052631578956715 5 0  4.631578947380689 5 0  4.210526315804662 5 0  3.789473684226299 5 0  3.368421052645599 5 0  2.947368421064898 5 0  2.526315789484198 5 0  2.105263157903499 5 0  1.6842105263228 5 0  1.2631578947421 5 0  0.8421052631613994 5 0  0.4210526315806993 5 0  0 4.545454545454545 0  0 4.09090909090909 0  0 3.636363636363634 0  0 3.18181818181818 0  0 2.727272727272726 0  0 2.272727272727271 0  0 1.818181818181817 0  0 1.363636363636363 0  0 0.9090909090909092 0  0 0.454545454545455 0  0 -0.4545454545450807 0  0 -0.9090909090895867 0  0 -1.363636363633713 0  0 -1.818181818177841 0  0 -2.272727272723127 0  0 -2.727272727269273 0  0 -3.181818181815419 0  0 -3.636363636361564 0  0 -4.090909090907709 0  0 -4.545454545453855 0  8 -4.499999999999999 0  8 -3.999999999999999 0  8 -3.499999999999999 0  8 -3 0  8.137254901963859 -2.5 0  8.274509803926303 -2.5 0  8.411764705886863 -2.5 0  8.549019607849138 -2.5 0  8.686274509809513 -2.5 0  8.82352941176989 -2.5 0  8.960784313730265 -2.5 0  9.098039215690642 -2.5 0  9.235294117651017 -2.5 0  9.372549019611395 -2.5 0  9.50980392157177 -2.5 0  9.647058823532147 -2.5 0  9.784313725492522 -2.5 0  9.921568627452897 -2.5 0  10.05882352941327 -2.5 0  10.19607843137365 -2.5 0  10.33333333333402 -2.5 0  10.4705882352944 -2.5 0  10.60784313725478 -2.5 0  10.74509803921515 -2.5 0  10.88235294117553 -2.5 0  11.0196078431359 -2.5 0  11.15686274509628 -2.5 0  11.29411764705665 -2.5 0  11.43137254901703 -2.5 0  11.56862745097915 -2.5 0  11.70588235294301 -2.5 0  11.84313725490686 -2.5 0  11.98039215687072 -2.5 0  12.11764705883209 -2.5 0  12.25490196079247 -2.5 0  12.39215686275285 -2.5 0  12.52941176471322 -2.5 0  12.6666666666736 -2.5 0  12.80392156863397 -2.5 0  12.94117647059435 -2.5 0  13.07843137255473 -2.5 0  13.2156862745151 -2.5 0  13.35294117647548 -2.5 0  13.49019607843586 -2.5 0  13.62745098039623 -2.5 0  13.76470588235661 -2.5 0  13.90196078431699 -2.5 0  14.03921568627736 -2.5 0  14.17647058823774 -2.5 0  14.31372549019812 -2.5 0  14.45098039215849 -2.5 0  14.58823529411887 -2.5 0  14.72549019607925 -2.5 0  14.86274509803962 -2.5 0  15.20270270270254 -2.5 0  15.40540540540509 -2.5 0  15.60810810810763 -2.5 0  15.81081081081017 -2.5 0  16.01351351351227 -2.5 0  16.21621621621265 -2.5 0  16.41891891891279 -2.5 0  16.62162162161294 -2.5 0  16.82432432431308 -2.5 0  17.02702702701322 -2.5 0  17.22972972971337 -2.5 0  17.43243243241351 -2.5 0  17.63513513511365 -2.5 0  17.83783783781379 -2.5 0  18.04054054051394 -2.5 0  18.24324324321408 -2.5 0  18.44594594591422 -2.5 0  18.64864864861436 -2.5 0  18.85135135131451 -2.5 0  19.05405405401465 -2.5 0  19.25675675671479 -2.5 0  19.45945945941494 -2.5 0  19.66216216211508 -2.5 0  19.86486486481522 -2.5 0  20.06756756751536 -2.5 0  20.27027027021551 -2.5 0  20.47297297291565 -2.5 0  20.6756756756158 -2.5 0  20.87837837831594 -2.5 0  21.08108108101608 -2.5 0  21.28378378371622 -2.5 0  21.48648648641637 -2.5 0  21.68918918911651 -2.5 0  21.89189189181666 -2.5 0  22.0945945945168 -2.5 0  22.29729729721694 -2.5 0  22.49999999991778 -2.5 0  22.70270270262203 -2.5 0  22.90540540532697 -2.5 0  23.10810810803191 -2.5 0  23.31081081073686 -2.5 0  23.5135135134418 -2.5 0  23.71621621614674 -2.5 0  23.91891891885169 -2.5 0  24.12162162155663 -2.5 0  24.32432432426158 -2.5 0  24.52702702696652 -2.5 0  24.72972972967146 -2.5 0  24.93243243237641 -2.5 0  25.13513513508135 -2.5 0  25.3378378377863 -2.5 0  25.54054054049124 -2.5 0  25.74324324319618 -2.5 0  25.94594594590112 -2.5 0  26.14864864860607 -2.5 0  26.35135135131101 -2.5 0  26.55405405401596 -2.5 0  26.7567567567209 -2.5 0  26.95945945942584 -2.5 0  27.16216216213079 -2.5 0  27.36486486483573 -2.5 0  27.56756756754068 -2.5 0  27.77027027024562 -2.5 0  27.97297297295056 -2.5 0  28.1756756756555 -2.5 0  28.37837837836045 -2.5 0  28.5810810810654 -2.5 0  28.78378378377034 -2.5 0  28.98648648647528 -2.5 0  29.18918918918023 -2.5 0  29.39189189188517 -2.5 0  29.59459459459011 -2.5 0  29.79729729729506 -2.5 0  30 -3.000000000000001 0  30 -3.500000000000001 0  30 -4.000000000000001 0  30 -4.5 0  8 4.499999999999999 0  8 3.999999999999999 0  8 3.499999999999999 0  8 3 0  8.137254901963859 2.5 0  8.274509803926303 2.5 0  8.411764705886863 2.5 0  8.549019607849138 2.5 0  8.686274509809513 2.5 0  8.82352941176989 2.5 0  8.960784313730265 2.5 0  9.098039215690642 2.5 0  9.235294117651017 2.5 0  9.372549019611395 2.5 0  9.50980392157177 2.5 0  9.647058823532147 2.5 0  9.784313725492522 2.5 0  9.921568627452897 2.5 0  10.05882352941327 2.5 0  10.19607843137365 2.5 0  10.33333333333402 2.5 0  10.4705882352944 2.5 0  10.60784313725478 2.5 0  10.74509803921515 2.5 0  10.88235294117553 2.5 0  11.0196078431359 2.5 0  11.15686274509628 2.5 0  11.29411764705665 2.5 0  11.43137254901703 2.5 0  11.56862745097915 2.5 0  11.70588235294301 2.5 0  11.84313725490686 2.5 0  11.98039215687072 2.5 0  12.11764705883209 2.5 0  12.25490196079247 2.5 0  1
[...]
<PointData  Vectors="f_17"> 
<DataArray  type="Float64"  Name="f_17"  NumberOfComponents="3" format="ascii">1.0000001333757826e+00 0.0000000000000000e+00 0.0000000000000000e+00  1.0398410210044418e+00 0.0000000000000000e+00 0.0000000000000000e+00  1.0873196347431400e+00 0.0000000000000000e+00 0.0000000000000000e+00  1.1492853325127301e+00 0.0000000000000000e+00 0.0000000000000000e+00  1.1015859514604354e+00 0.0000000000000000e+00 0.0000000000000000e+00  1.0730525607326573e+00 0.0000000000000000e+00 0.0000000000000000e+00  1.0426818902907862e+00 0.0000000000000000e+00 0.0000000000000000e+00  1.0000001333757826e+00 0.0000000000000000e+00 0.0000000000000000e+00  1.0184659647201306e+00 -5.0504748913344728e-02 0.0000000000000000e+00  1.0061174990206063e+00 6.0616578899366599e-02 0.0000000000000000e+00  1.1112753709941365e+00 6.6451994996621605e-02 0.0000000000000000e+00  1.0523308390479738e+00 9.1972631006916605e-02 0.0000000000000000e+00  1.1375771322346935e+00 1.6162072388703316e-02 0.0000000000000000e+00  1.0244595584218694e+00 5.2950953301539379e-02 0.0000000000000000e+00  0.0000000000000000e+00 0.0000000000000000e+00 0.0000000000000000e+00  0.0000000000000000e+00 0.0000000000000000e+00 0.0000000000000000e+00  1.0000001333757826e+00 0.0000000000000000e+00 0.0000000000000000e+00  9.9929120501630520e-01 0.0000000000000000e+00 0.0000000000000000e+00  9.9871550784753360e-01 0.0000000000000000e+00 0.0000000000000000e+00  1.0007483882873645e+00 0.0000000000000000e+00 0.0000000000000000e+00  1.0004834861843190e+00 0.0000000000000000e+00 0.0000000000000000e+00  1.0013386053560194e+00 0.0000000000000000e+00 0.0000000000000000e+00  1.0015004260416303e+00 0.0000000000000000e+00 0.0000000000000000e+00  1.0016168862120975e+00 0.0000000000000000e+00 0.0000000000000000e+00  1.0022603358660123e+00 0.0000000000000000e+00 0.0000000000000000e+00  1.0032939872155857e+00 0.0000000000000000e+00 0.0000000000000000e+00  1.0042660543557589e+00 0.0000000000000000e+00 0.0000000000000000e+00  1.0055815208148506e+00 0.0000000000000000e+00 0.0000000000000000e+00  1.0077016045088758e+00 0.0000000000000000e+00 0.0000000000000000e+00  1.0099316918826509e+00 0.0000000000000000e+00 0.0000000000000000e+00  1.0137458299196345e+00 0.0000000000000000e+00 0.0000000000000000e+00  1.0153608732147379e+00 0.0000000000000000e+00 0.0000000000000000e+00  1.0198041748042692e+00 0.0000000000000000e+00 0.0000000000000000e+00  1.0264651123397133e+00 0.0000000000000000e+00 0.0000000000000000e+00  1.0318460155925440e+00 0.0000000000000000e+00 0.0000000000000000e+00  1.0480106091522106e+00 0.0000000000000000e+00 0.0000000000000000e+00  1.0567916808991518e+00 0.0000000000000000e+00 0.0000000000000000e+00  1.0652201640265939e+00 0.0000000000000000e+00 0.0000000000000000e+00  1.0743423838180928e+00 0.0000000000000000e+00 0.0000000000000000e+00  1.0821593509079568e+00 0.0000000000000000e+00 0.0000000000000000e+00  1.0893991391298867e+00 0.0000000000000000e+00 0.0000000000000000e+00  1.0961564903175081e+00 0.0000000000000000e+00 0.0000000000000000e+00  1.1000749210169154e+00 0.0000000000000000e+00 0.0000000000000000e+00  1.1026676599344225e+00 0.0000000000000000e+00 0.0000000000000000e+00  1.1028765232915561e+00 0.0000000000000000e+00 0.0000000000000000e+00  1.1012631995261020e+00 0.0000000000000000e+00 0.0000000000000000e+00  1.0965235324845588e+00 0.0000000000000000e+00 0.0000000000000000e+00  1.0910840680273981e+00 0.0000000000000000e+00 0.0000000000000000e+00  1.0841238891167635e+00 0.0000000000000000e+00 0.0000000000000000e+00  1.0765911791893026e+00 0.0000000000000000e+00 0.0000000000000000e+00  1.0697825603768598e+00 0.0000000000000000e+00 0.0000000000000000e+00  1.0640119429873567e+00 0.0000000000000000e+00 0.0000000000000000e+00  1.0602219065863314e+00 0.0000000000000000e+00 0.0000000000000000e+00  1.0583241110731216e+00 0.0000000000000000e+00 0.0000000000000000e+00  1.0583717379393704e+00 0.0000000000000000e+00 0.0000000000000000e+00  1.0612836616254788e+00 0.0000000000000000e+00 0.0000000000000000e+00  1.0654151362813749e+00 0.0000000000000000e+00 0.0000000000000000e+00  1.0681703941509884e+00 0.0000000000000000e+00 0.0000000000000000e+00  1.0704108330410158e+00 0.0000000000000000e+00 0.0000000000000000e+00  1.0704844806515015e+00 0.0000000000000000e+00 0.0000000000000000e+00  1.0680988206849127e+00 0.0000000000000000e+00 0.0000000000000000e+00  1.0641427310982352e+00 0.0000000000000000e+00 0.0000000000000000e+00  1.0584398342334469e+00 0.0000000000000000e+00 0.0000000000000000e+00  1.0526945949186082e+00 0.0000000000000000e+00 0.0000000000000000e+00  1.0481628936638627e+00 0.0000000000000000e+00 0.0000000000000000e+00  1.0448265018845422e+00 0.0000000000000000e+00 0.0000000000000000e+00  1.0438311372641289e+00 0.0000000000000000e+00 0.0000000000000000e+00  1.0471212926565721e+00 0.0000000000000000e+00 0.0000000000000000e+00  1.0516885359574293e+00 0.0000000000000000e+00 0.0000000000000000e+00  1.0576069780593551e+00 0.0000000000000000e+00 0.0000000000000000e+00  1.0650430497969645e+00 0.0000000000000000e+00 0.0000000000000000e+00  1.0706537211852230e+00 0.0000000000000000e+00 0.0000000000000000e+00  1.0740562506488407e+00 0.0000000000000000e+00 0.0000000000000000e+00  1.0761482155192486e+00 0.0000000000000000e+00 0.0000000000000000e+00  1.0746048610109196e+00 0.0000000000000000e+00 0.0000000000000000e+00  1.0706711008040324e+00 0.0000000000000000e+00 0.0000000000000000e+00  1.0664086017828112e+00 0.0000000000000000e+00 0.0000000000000000e+00  1.0615831048808055e+00 0.0000000000000000e+00 0.0000000000000000e+00  1.0580769979613966e+00 0.0000000000000000e+00 0.0000000000000000e+00  1.0573480447469925e+00 0.0000000000000000e+00 0.0000000000000000e+00  1.0582140728259422e+00 0.0000000000000000e+00 0.0000000000000000e+00  1.0612266857347996e+00 0.0000000000000000e+00 0.0000000000000000e+00  1.0687312277709384e+00 0.0000000000000000e+00 0.0000000000000000e+00  1.0750523555545073e+00 0.0000000000000000e+00 0.0000000000000000e+00  1.0796866838457275e+00 0.0000000000000000e+00 0.0000000000000000e+00  1.0841226973396645e+00 0.0000000000000000e+00 0.0000000000000000e+00  1.0880489854673518e+00 0.0000000000000000e+00 0.0000000000000000e+00  1.0885453700785384e+00 0.0000000000000000e+00 0.0000000000000000e+00  1.0840999054280664e+00 0.0000000000000000e+00 0.0000000000000000e+00  1.0798667385401282e+00 0.0000000000000000e+00 0.0000000000000000e+00  1.0764985157026128e+00 0.0000000000000000e+00 0.0000000000000000e+00  1.0758477560971338e+00 0.0000000000000000e+00 0.0000000000000000e+00  1.0778007109311507e+00 0.0000000000000000e+00 0.0000000000000000e+00  1.0814257917962034e+00 0.0000000000000000e+00 0.0000000000000000e+00  1.0870559304781164e+00 0.0000000000000000e+00 0.0000000000000000e+00  1.0935164339276249e+00 0.0000000000000000e+00 0.0000000000000000e+00  1.0998733180981251e+00 0.0000000000000000e+00 0.0000000000000000e+00  1.1042292835766629e+00 0.0000000000000000e+00 0.0000000000000000e+00  1.1073217604374197e+00 0.0000000000000000e+00 0.0000000000000000e+00  1.1076833884858823e+00 0.0000000000000000e+00 0.0000000000000000e+00  1.1059824520267563e+00 0.0000000000000000e+00 0.0000000000000000e+00  1.1033253931133140e+00 0.0000000000000000e+00 0.0000000000000000e+00  1.1000212260943558e+00 0.0000000000000000e+00 0.0000000000000000e+00  1.0975831261526898e+00 0.0000000000000000e+00 0.0000000000000000e+00  1.0960852935752570e+00 0.0000000000000000e+00 0.0000000000000000e+00  1.0976459020351650e+00 0.0000000000000000e+00 0.0000000000000000e+00  1.1020572957715320e+00 0.0000000000000000e+00 0.0000000000000000e+00  1.1099281280387987e+00 0.0000000000000000e+00 0.0000000000000000e+00  1.1194037823927721e+00 0.0000000000000000e+00 0.0000000000000000e+00  1.1306357595522813e+00 0.0000000000000000e+00 0.0000000000000000e+00  1.1404529917784034e+00 0.0000000000000000e+00 0.0000000000000000e+00  1.1515367997720480e+00 -7.3916361066837626e-03 0.0000000000000000e+00  1.1577526770306854e+00 -1.5923731670202595e-02 0.0000000000000000e+00  1.1699403845094194e+00 -2.7004180060702904e-02 0.0000000000000000e+00  1.1924321866943890e+00 -4.3372313950689356e-02 0.0000000000000000e+00  1.2263889469171809e+00 -6.6448707602629525e-02 0.0000000000000000e+00  1.2300086477810470e+00 -9.4399413950256902e-02 0.0000000000000000e+00  1.1648635599915218e+00 -1.1477464686616728e-01 0.0000000000000000e+00  1.0299573810030891e+00 -1.2332127146502996e-01 0.0000000000000000e+00  8.5718761019195899e-01 -1.0641085764525118e-01 0.0000000000000000e+00  7.1029814761572951e-01 -7.3022124870002134e-02 0.0000000000000000e+00  6.3694231322294337e-01 -4.9493721013785207e-02 0.0000000000000000e+00  6.4303818164143800e-01 -3.7346227033383729e-02 0.0000000000000000e+00  7.0195510162927266e-01 -3.3056271017286386e-02 0.0000000000000000e+00  7.8332658509362296e-01 -3.3127587689971538e-02 0.0000000000000000e+00  8.6046615372504698e-01 -4.2989703555079362e-02 0.0000000000000000e+00  9.2575779166743066e-01 -5.1531575349934466e-02 0.0000000000000000e+00  9.8154785272005551e-01 -4.9461205488281486e-02 0.0000000000000000e+00  1.0267901317755808e+00 -3.9968082900713284e-02 0.0000000000000000e+00  1.0591340419289845e+00 -2.7921082168020733e-02 0.0000000000000000e+00  1.0805589553812787e+00 -1.9018915690148342e-02 0.0000000000000000e+00  1.0923783219657228e+00 -1.2057703069140370e-02 0.0000000000000000e+00  1.0989754159297993e+00 -6.9004525127884797e-03 0.0000000000000000e+00  1.1013599911507972e+00 -3.1208572830040823e-03 0.0000000000000000e+00  1.1051062191782686e+00 0.0000000000000000e+00 0.0000000000000000e+00  1.1099806496272830e+00 0.0000000000000000e+00 0.0000000000000000e+00  1.1151039545742654e+00 0.0000000000000000e+00 0.0000000000000000e+00  1.1199501230448168e+00 0.0000000000000000e+00 0.0000000000000000e+00  1.1227631300611607e+00 0.0000000000000000e+00 0.0000000000000000e+00  1.1239098463681882e+00 0.0000000000000000e+00 0.0000000000000000e+00  1.1228149049334577e+00 0.0000000000000000e+00 0.0000000000000000e+00  1.1190456445025085e+00 0.0000000000000000e+00 0.0000000000000000e+00  1.1126153165081976e+00 0.0000000000000000e+00 0.0000000000000000e+00  1.1055035123670147e+00 0.0000000000000000e+00 0.0000000000000000e+00  1.0986052585541166e+00 0.0000000000000000e+00 0.0000000000000000e+00  1.0928722195729903e+00 0.0000000000000000e+00 0.0000000000000000e+00  1.0895220088060100e+00 0.0000000000000000e+00 0.0000000000000000e+00  1.0893697377588847e+00 0.0000000000000000e+00 0.0000000000000000e+00  1.0908035146769557e+00 0.0000000000000000e+00 0.0000000000000000e+00  1.0943650200376553e+00 0.0000000000000000e+00 0.0000000000000000e+00  1.0968776866960819e+00 0.0000000000000000e+00 0.0000000000000000e+00  1.0988286461912453e+00 0.0000000000000000e+00 0.0000000000000000e+00  1.0985031649883952e+00 0.0000000000000000e+00 0.0000000000000000e+00  1.0964937511124202e+00 0.0000000000000000e+00 0.0000000000000000e+00  1.0921229488227775e+00 0.0000000000000000e+00 0.0000000000000000e+00  1.0855911437044947e+00 0.0000000000000000e+00 0.0000000000000000e+00  1.0792537348847895e+00 0.0000000000000000e+00 0.0000000000000000e+00  1.0678472997793191e+00 0.0000000000000000e+00 0.0000000000000000e+00  1.0654192709928223e+00 0.0000000000000000e+00 0.0000000000000000e+00  1.0644204653731122e+00 0.0000000000000000e+00 0.0000000000000000e+00  1.0672107832085487e+00 0.0000000000000000e+00 0.0000000000000000e+00  1.0725898567044498e+00 0.0000000000000000e+00 0.0000000000000000e+00  1.0771800033440788e+00 0.0000000000000000e+00 0.0000000000000000e+00  1.0792808412642707e+00 0.0000000000000000e+00 0.0000000000000000e+00  1.0817510762211897e+00 0.0000000000000000e+00 0.0000000000000000e+00  1.0814234591736527e+00 0.0000000000000000e+00 0.0000000000000000e+00  1.0775756570074448e+00 0.0000000000000000e+00 0.0000000000000000e+00  1.0721828460621732e+00 0.0000000000000000e+00 0.0000000000000000e+00  1.0655796904478005e+00 0.0000000000000000e+00 0.0000000000000000e+00  1.0583383909646686e+00 0.0000000000000000e+00 0.0000000000000000e+00  1.0532094614569700e+00 0.0000000000000000e+00 0.0000000000000000e+00  1.0501471531831696e+00 0.0000000000000000e+00 0.0000000000000000e+00  1.0487367148670572e+00 0.0000000000000000e+00 0.0000000000000000e+00  1.0512039066326484e+00 0.0000000000000000e+00 0.0000000000000000e+00  1.0555881881262501e+00 0.0000000000000000e+00 0.0000000000000000e+00  1.0602116365261336e+00 0.0000000000000000e+00 0.0000000000000000e+00  1.0655997494722467e+00 0.0000000000000000e+00 0.0000000000000000e+00  1.0695115343279589e+00 0.0000000000000000e+00 0.0000000000000000e+00  1.0700932365714346e+00 0.0000000000000000e+00 0.0000000000000000e+00  1.0693021476269986e+00 0.0000000000000000e+00 0.0000000000000000e+00  1.0658889319401084e+00 0.0000000000000000e+00 0.0000000000000000e+00  1.0598262919936201e+00 0.0000000000000000e+00 0.0000000000000000e+00  1.0537282673916182e+00 0.0000000000000000e+00 0.0000000000000000e+00  1.0483317063308428e+00 0.0000000000000000e+00 0.0000000000000000e+00  1.0444502626137273e+00 0.0000000000000000e+00 0.0000000000000000e+00  1.0434016608775514e+00 0.0000000000000000e+00 0.0000000000000000e+00  1.0451056755148842e+00 0.0000000000000000e+00 0.0000000000000000e+00  1.0488612635020556e+00 0.0000000000000000e+00 0.0000000000000000e+00  1.0551514123074996e+00 0.0000000000000000e+00 0.0000000000000000e+00  1.0610426319835666e+00 0.0000000000000000e+00 0.0000000000000000e+00  1.0672590095727281e+00 0.0000000000000000e+00 0.0000000000000000e+00  1.0733193252407294e+00 0.0000000000000000e+00 0.0000000000000000e+00  1.0778091891925634e+00 0.0000000000000000e+00 0.0000000000000000e+00  1.0802505948784646e+00 0.0000000000000000e+00 0.0000000000000000e+00  1.0809756006963875e+00 0.0000000000000000e+00 0.0000000000000000e+00  1.0813925963835078e+00 0.0000000000000000e+00 0.0000000000000000e+00  1.0824672053629338e+00 0.0000000000000000e+00 0.0000000000000000e+00  1.0831250601422364e+00 0.0000000000000000e+00 0.0000000000000000e+00  1.0842212977012555e+00 0.0000000000000000e+00 0.0000000000000000e+00  1.0871931703001658e+00 0.0000000000000000e+00 0.0000000000000000e+00  1.0885578126122899e+00 0.0000000000000000e+00 0.0000000000000000e+00  1.0902521584036882e+00 0.0000000000000000e+00 0.0000000000000000e+00  1.0905118685396817e+00 0.0000000000000000e+00 0.0000000000000000e+00  1.0885918275895914e+00 0.0000000000000000e+00 0.0000000000000000e+00  1.0851167439383256e+00 0.0000000000000000e+00 0.0000000000000000e+00  1.0803220025771145e+00 0.0000000000000000e+00 0.0000000000000000e+00  1.0741486900635042e+00 0.0000000000000000e+00 0.0000000000000000e+00  1.0662626052485893e+00 0.0000000000000000e+00 0.0000000000000000e+00  1.0588495092094494e+00 0.0000000000000000e+00 0.0000000000000000e+00  1.0506308389505661e+00 0.0000000000000000e+00 0.0000000000000000e+00  1.0349232989146631e+00 0.0000000000000000e+00 0.0000000000000000e+00  1.0281508873968705e+00 0.0000000000000000e+00 0.0000000000000000e+00  1.0227718704459889e+00 0.0000000000000000e+00 0.0000000000000000e+00  1.0179416944213164e+00 0.0000000000000000e+00 0.0000000000000000e+00  1.0139971202164884e+00 0.0000000000000000e+00 0.0000000000000000e+00  1.0108760705111197e+00 0.0000000000000000e+00 0.0000000000000000e+00  1.0084810076814630e+00 0.0000000000000000e+00 0.0000000000000000e+00  1.0061601203255459e+00 0.0000000000000000e+00 0.0000000000000000e+00  1.0045104319157612e+00 0.0000000000000000e+00 0.0000000000000000e+00  1.0033287179469785e+00 0.0000000000000000e+00 0.0000000000000000e+00  1.0019892199122684e+00 0.0000000000000000e+00 0.0000000000000000e+00  1.0016840306632506e+00 0.0000000000000000e+00 0.0000000000000000e+00  1.0004889200868026e+00 0.0000000000000000e+00 0.0000000000000000e+00  1.0003620021073629e+00 0.0000000000000000e+00 0.0000000000000000e+00  9.9988577268599044e-01 0.0000000000000000e+00 0.0000000000000000e+00  1.0005099312018779e+00 0.0000000000000000e+00 0.0000000000000000e+00  1.0002499219269718e+00 0.0000000000000000e+00 0.0000000000000000e+00  9.9979686398408740e-01 0.0000000000000000e+00 0.0000000000000000e+00  1.0000001333757826e+00 0.0000000000000000e+00 0.0000000000000000e+00  1.0000001333757826e+00 0.0000000000000000e+00 0.0000000000000000e+00  1.0000001333757826e+00 0.0000000000000000e+00 0.0000000000000000e+00  1.0000001333757826e+00 0.0000000000000000e+00 0.0000000000000000e+00  1.0000001333757826e+00 0.0000000000000000e+00 0.0000000000000000e+00  1.0000001333757826e+00 0.0000000000000000e+00 0.0000000000000000e+00  1.0000001333757826e+00 0.0000000000000000e+00 0.0000000000000000e+00  1.0000001333757826e+00 0.0000000000000000e+00 0.0000000000000000e+00  1.0000001333757826e+00 0.0000000000000000e+00 0.0000000000000000e+00  1.0000001333757826e+00 0.0000000000000000e+00 0.0000000000000000e+00  1.0000001333757826e+00 0.0000000000000000e+00 0.0000000000000000e+00  1.0000001333757826e+00 0.0000000000000000e+00 0.0000000000000000e+00  1.0000001333757826e+00 0.0000000000000000e+00 0.0000000000000000e+00  1.0000001333757826e+00 0.0000000000000000e+00 0.0000000000000000e+00  1.0000001333757826e+00 0.0000000000000000e+00 0.0000000000000000e+00  1.0000001333757826e+00 0.0000000000000000e+00 0.0000000000000000e+00  1.0000001333757826e+00 0.0000000000000000e+00 0.0000000000000000e+00  1.0000001333757826e+00 0.0000000000000000e+00 0.0000000000000000e+00  1.0000001333757826e+00 0.0000000000000000e+00 0.0000000000000000e+00  1.0000001333757826e+00 0.0000000000000000e+00 0.0000000000000000e+00  1.0391560103703479e+00 -9.4818187757198785e-03 0.0000000000000000e+00  1.0359517257629458e+00 -1.9104683832941376e-02 0.0000000000000000e+00  1.0334048221454648e+00 -2.9368041622741609e-02 0.0000000000000000e+00  1.0272956154897523e+00 -3.9932029890018421e-02 0.0000000000000000e+00  1.0209836671205881e+00 -5.4247862041331744e-02 0.0000000000000000e+00  1.0252361856566601e+00 -5.7667922120440349e-02 0.0000000000000000e+00  1.0290795364569036e+00 -6.1175745608769233e-02 0.0000000000000000e+00  1.0339150133779893e+00 -6.4395440593320558e-02 0.0000000000000000e+00  1.0389875346898432e+00 -6.7487188281687469e-02 0.0000000000000000e+00  1.0446510109107554e+00 -7.0180028179038248e-02 0.0000000000000000e+00  1.0508586881037252e+00 -7.2548732639045946e-02 0.0000000000000000e+00  1.0574490283490521e+00 -7.4293829777718923e-02 0.0000000000000000e+00  1.0645094627185665e+00 -7.5526672022698776e-02 0.0000000000000000e+00  1.0716169733311969e+00 -7.5929595726682494e-02 0.0000000000000000e+00  1.0789857867679764e+00 -7.5762188985336099e-02 0.0000000000000000e+00  1.0862943759896102e+00 -7.4930207166011537e-02 0.0000000000000000e+00  1.0936279793643229e+00 -7.3131426624157433e-02 0.0000000000000000e+00  1.1005204159355355e+00 -7.0538695210075858e-02 0.0000000000000000e+00  1.1070432402722041e+00 -6.7446930875911332e-02 0.0000000000000000e+00  1.1130779470736121e+00 -6.3757730924352829e-02 0.0000000000000000e+00  1.1184751232084451e+00 -5.9619746600115750e-02 0.0000000000000000e+00  1.1232191519845118e+00 -5.5139990308050293e-02 0.0000000000000000e+00  1.1274047458603671e+00 -5.0559050237417247e-02 0.0000000000000000e+00  1.1309909077868827e+00 -4.5749699613423261e-02 0.0000000000000000e+00  1.1340800213711459e+00 -4.1192219830699976e-02 0.0000000000000000e+00  1.1367366647395154e+00 -3.6448764135083495e-02 0.0000000000000000e+00  1.1390377220740286e+00 -3.1847865925068684e-02 0.0000000000000000e+00  1.1412064189430142e+00 -2.7440054016516249e-02 0.0000000000000000e+00  1.1431989681937740e+00 -2.3091546503026188e-02 0.0000000000000000e+00  1.1451066582097171e+00 -1.8706114152673110e-02 0.0000000000000000e+00  1.1469630678421436e+00 -1.4118802138899430e-02 0.0000000000000000e+00  1.1487851470972188e+00 -9.3142471336340078e-03 0.0000000000000000e+00  1.1504471359619628e+00 -4.0925848073959901e-03 0.0000000000000000e+00  1.1519372565841022e+00 1.6170328518050634e-03 0.0000000000000000e+00  1.1530348276385600e+00 7.8456858912087143e-03 0.0000000000000000e+00  1.1536068451360841e+00 1.