<?xml version="1.0"?>
<VTKFile type="UnstructuredGrid"  version="0.1"  >
<UnstructuredGrid>
<Piece  NumberOfPoints="10199" NumberOfCells="20110">
<Points>
<DataArray  type="Float64"  NumberOfComponents="3"  format="ascii">0 -5 0  8 -5 0  30 -5 0  40 -5 0  40 5 0  30 5 0  8 5 0  0 5 0  8 -2.5 0  15 -2.5 0  30 -2.5 0  30 2.5 0  15 2.5 0  8 2.5 0  10 0.5 0  10 -0.5 0  0 0 0  0.4210526315780956 -5 0  0.8421052631563433 -5 0  1.263157894734281 -5 0  1.684210526311999 -5 0  2.105263157889717 -5 0  2.526315789467435 -5 0  2.947368421045153 -5 0  3.368421052622872 -5 0  3.78947368420059 -5 0  4.210526315779479 -5 0  4.631578947359537 -5 0  5.052631578939595 -5 0  5.473684210519653 -5 0  5.89473684209971 -5 0  6.315789473679768 -5 0  6.736842105259826 -5 0  7.157894736839884 -5 0  7.578947368419942 -5 0  8.407407407405314 -5 0  8.814814814810628 -5 0  9.222222222215942 -5 0  9.629629629621256 -5 0  10.03703703702657 -5 0  10.44444444443188 -5 0  10.8518518518372 -5 0  11.25925925924251 -5 0  11.66666666664783 -5 0  12.07407407405314 -5 0  12.48148148145846 -5 0  12.88888888886377 -5 0  13.29629629626908 -5 0  13.7037037036744 -5 0  14.11111111107971 -5 0  14.51851851848502 -5 0  14.92592592589034 -5 0  15.33333333329565 -5 0  15.74074074070096 -5 0  16.14814814810754 -5 0  16.55555555551614 -5 0  16.96296296292474 -5 0  17.37037037033335 -5 0  17.77777777774195 -5 0  18.18518518515056 -5 0  18.59259259255916 -5 0  18.99999999996776 -5 0  19.40740740737636 -5 0  19.81481481478497 -5 0  20.22222222219357 -5 0  20.62962962960217 -5 0  21.03703703701077 -5 0  21.44444444441937 -5 0  21.85185185182797 -5 0  22.25925925923657 -5 0  22.66666666664518 -5 0  23.07407407405378 -5 0  23.48148148146238 -5 0  23.88888888887098 -5 0  24.29629629627958 -5 0  24.70370370368818 -5 0  25.11111111109678 -5 0  25.51851851850539 -5 0  25.92592592591399 -5 0  26.33333333332259 -5 0  26.74074074073119 -5 0  27.14814814813979 -5 0  27.55555555554839 -5 0  27.96296296295699 -5 0  28.3703703703656 -5 0  28.7777777777742 -5 0  29.1851851851828 -5 0  29.5925925925914 -5 0  30.41666666667852 -5 0  30.83333333335704 -5 0  31.25000000003556 -5 0  31.66666666671408 -5 0  32.08333333338936 -5 0  32.50000000005308 -5 0  32.9166666667168 -5 0  33.33333333338052 -5 0  33.75000000004424 -5 0  34.16666666670795 -5 0  34.58333333337167 -5 0  35.00000000003539 -5 0  35.41666666669911 -5 0  35.83333333336282 -5 0  36.25000000002654 -5 0  36.66666666669026 -5 0  37.08333333335398 -5 0  37.50000000001769 -5 0  37.91666666668141 -5 0  38.33333333334513 -5 0  38.75000000000885 -5 0  39.16666666667257 -5 0  39.58333333333628 -5 0  40 -4.583333333332821 0  40 -4.166666666665642 0  40 -3.74999999999855 0  40 -3.333333333333135 0  40 -2.916666666667806 0  40 -2.500000000002478 0  40 -2.083333333337148 0  40 -1.666666666671818 0  40 -1.250000000006488 0  40 -0.8333333333405228 0  40 -0.4166666666733416 0  40 -6.163070054299169e-12 0  40 0.4166666666610173 0  40 0.8333333333281976 0  40 1.249999999995378 0  40 1.666666666662558 0  40 2.083333333329739 0  40 2.499999999996919 0  40 2.916666666664099 0  40 3.33333333333128 0  40 3.74999999999846 0  40 4.166666666665641 0  40 4.583333333332821 0  39.58333333333628 5 0  39.16666666667256 5 0  38.75000000000885 5 0  38.33333333334513 5 0  37.91666666668141 5 0  37.50000000001769 5 0  37.08333333335398 5 0  36.66666666669025 5 0  36.25000000002654 5 0  35.83333333336282 5 0  35.41666666669911 5 0  35.00000000003539 5 0  34.58333333337167 5 0  34.16666666670795 5 0  33.75000000004424 5 0  33.33333333338052 5 0  32.9166666667168 5 0  32.50000000005308 5 0  32.08333333338936 5 0  31.66666666671408 5 0  31.25000000003556 5 0  30.83333333335704 5 0  30.41666666667852 5 0  29.59259259259259 5 0  29.18518518518519 5 0  28.77777777777778 5 0  28.37037037037037 5 0  27.96296296296296 5 0  27.55555555555556 5 0  27.14814814814815 5 0  26.74074074074074 5 0  26.33333333333333 5 0  25.92592592592593 5 0  25.51851851851852 5 0  25.11111111111111 5 0  24.7037037037037 5 0  24.2962962962963 5 0  23.88888888888889 5 0  23.48148148148148 5 0  23.07407407407408 5 0  22.66666666666667 5 0  22.25925925925926 5 0  21.85185185185185 5 0  21.44444444444445 5 0  21.03703703703704 5 0  20.62962962962963 5 0  20.22222222222222 5 0  19.81481481481482 5 0  19.40740740740741 5 0  19 5 0  18.5925925925926 5 0  18.18518518518519 5 0  17.77777777777778 5 0  17.37037037037037 5 0  16.96296296296296 5 0  16.55555555555556 5 0  16.14814814814815 5 0  15.74074074074074 5 0  15.33333333333333 5 0  14.92592592592593 5 0  14.51851851851852 5 0  14.11111111111111 5 0  13.70370370370371 5 0  13.2962962962963 5 0  12.88888888888889 5 0  12.48148148148148 5 0  12.07407407407408 5 0  11.66666666666667 5 0  11.25925925925926 5 0  10.85185185185185 5 0  10.44444444444445 5 0  10.03703703703704 5 0  9.629629629629633 5 0  9.222222222222221 5 0  8.814814814814817 5 0  8.407407407407408 5 0  7.5789473684193 5 0  7.157894736838599 5 0  6.73684210526082 5 0  6.315789473684795 5 0  5.894736842108769 5 0  5.473684210532742 5 0  5.052631578956715 5 0  4.631578947380689 5 0  4.210526315804662 5 0  3.789473684226299 5 0  3.368421052645599 5 0  2.947368421064898 5 0  2.526315789484198 5 0  2.105263157903499 5 0  1.6842105263228 5 0  1.2631578947421 5 0  0.8421052631613994 5 0  0.4210526315806993 5 0  0 4.545454545454545 0  0 4.09090909090909 0  0 3.636363636363634 0  0 3.18181818181818 0  0 2.727272727272726 0  0 2.272727272727271 0  0 1.818181818181817 0  0 1.363636363636363 0  0 0.9090909090909092 0  0 0.454545454545455 0  0 -0.4545454545450807 0  0 -0.9090909090895867 0  0 -1.363636363633713 0  0 -1.818181818177841 0  0 -2.272727272723127 0  0 -2.727272727269273 0  0 -3.181818181815419 0  0 -3.636363636361564 0  0 -4.090909090907709 0  0 -4.545454545453855 0  8 -4.499999999999999 0  8 -3.999999999999999 0  8 -3.499999999999999 0  8 -3 0  8.137254901963859 -2.5 0  8.274509803926303 -2.5 0  8.411764705886863 -2.5 0  8.549019607849138 -2.5 0  8.686274509809513 -2.5 0  8.82352941176989 -2.5 0  8.960784313730265 -2.5 0  9.098039215690642 -2.5 0  9.235294117651017 -2.5 0  9.372549019611395 -2.5 0  9.50980392157177 -2.5 0  9.647058823532147 -2.5 0  9.784313725492522 -2.5 0  9.921568627452897 -2.5 0  10.05882352941327 -2.5 0  10.19607843137365 -2.5 0  10.33333333333402 -2.5 0  10.4705882352944 -2.5 0  10.60784313725478 -2.5 0  10.74509803921515 -2.5 0  10.88235294117553 -2.5 0  11.0196078431359 -2.5 0  11.15686274509628 -2.5 0  11.29411764705665 -2.5 0  11.43137254901703 -2.5 0  11.56862745097915 -2.5 0  11.70588235294301 -2.5 0  11.84313725490686 -2.5 0  11.98039215687072 -2.5 0  12.11764705883209 -2.5 0  12.25490196079247 -2.5 0  12.39215686275285 -2.5 0  12.52941176471322 -2.5 0  12.6666666666736 -2.5 0  12.80392156863397 -2.5 0  12.94117647059435 -2.5 0  13.07843137255473 -2.5 0  13.2156862745151 -2.5 0  13.35294117647548 -2.5 0  13.49019607843586 -2.5 0  13.62745098039623 -2.5 0  13.76470588235661 -2.5 0  13.90196078431699 -2.5 0  14.03921568627736 -2.5 0  14.17647058823774 -2.5 0  14.31372549019812 -2.5 0  14.45098039215849 -2.5 0  14.58823529411887 -2.5 0  14.72549019607925 -2.5 0  14.86274509803962 -2.5 0  15.20270270270254 -2.5 0  15.40540540540509 -2.5 0  15.60810810810763 -2.5 0  15.81081081081017 -2.5 0  16.01351351351227 -2.5 0  16.21621621621265 -2.5 0  16.41891891891279 -2.5 0  16.62162162161294 -2.5 0  16.82432432431308 -2.5 0  17.02702702701322 -2.5 0  17.22972972971337 -2.5 0  17.43243243241351 -2.5 0  17.63513513511365 -2.5 0  17.83783783781379 -2.5 0  18.04054054051394 -2.5 0  18.24324324321408 -2.5 0  18.44594594591422 -2.5 0  18.64864864861436 -2.5 0  18.85135135131451 -2.5 0  19.05405405401465 -2.5 0  19.25675675671479 -2.5 0  19.45945945941494 -2.5 0  19.66216216211508 -2.5 0  19.86486486481522 -2.5 0  20.06756756751536 -2.5 0  20.27027027021551 -2.5 0  20.47297297291565 -2.5 0  20.6756756756158 -2.5 0  20.87837837831594 -2.5 0  21.08108108101608 -2.5 0  21.28378378371622 -2.5 0  21.48648648641637 -2.5 0  21.68918918911651 -2.5 0  21.89189189181666 -2.5 0  22.0945945945168 -2.5 0  22.29729729721694 -2.5 0  22.49999999991778 -2.5 0  22.70270270262203 -2.5 0  22.90540540532697 -2.5 0  23.10810810803191 -2.5 0  23.31081081073686 -2.5 0  23.5135135134418 -2.5 0  23.71621621614674 -2.5 0  23.91891891885169 -2.5 0  24.12162162155663 -2.5 0  24.32432432426158 -2.5 0  24.52702702696652 -2.5 0  24.72972972967146 -2.5 0  24.93243243237641 -2.5 0  25.13513513508135 -2.5 0  25.3378378377863 -2.5 0  25.54054054049124 -2.5 0  25.74324324319618 -2.5 0  25.94594594590112 -2.5 0  26.14864864860607 -2.5 0  26.35135135131101 -2.5 0  26.55405405401596 -2.5 0  26.7567567567209 -2.5 0  26.95945945942584 -2.5 0  27.16216216213079 -2.5 0  27.36486486483573 -2.5 0  27.56756756754068 -2.5 0  27.77027027024562 -2.5 0  27.97297297295056 -2.5 0  28.1756756756555 -2.5 0  28.37837837836045 -2.5 0  28.5810810810654 -2.5 0  28.78378378377034 -2.5 0  28.98648648647528 -2.5 0  29.18918918918023 -2.5 0  29.39189189188517 -2.5 0  29.59459459459011 -2.5 0  29.79729729729506 -2.5 0  30 -3.000000000000001 0  30 -3.500000000000001 0  30 -4.000000000000001 0  30 -4.5 0  8 4.499999999999999 0  8 3.999999999999999 0  8 3.499999999999999 0  8 3 0  8.137254901963859 2.5 0  8.274509803926303 2.5 0  8.411764705886863 2.5 0  8.549019607849138 2.5 0  8.686274509809513 2.5 0  8.82352941176989 2.5 0  8.960784313730265 2.5 0  9.098039215690642 2.5 0  9.235294117651017 2.5 0  9.372549019611395 2.5 0  9.50980392157177 2.5 0  9.647058823532147 2.5 0  9.784313725492522 2.5 0  9.921568627452897 2.5 0  10.05882352941327 2.5 0  10.19607843137365 2.5 0  10.33333333333402 2.5 0  10.4705882352944 2.5 0  10.60784313725478 2.5 0  10.74509803921515 2.5 0  10.88235294117553 2.5 0  11.0196078431359 2.5 0  11.15686274509628 2.5 0  11.29411764705665 2.5 0  11.43137254901703 2.5 0  11.56862745097915 2.5 0  11.70588235294301 2.5 0  11.84313725490686 2.5 0  11.98039215687072 2.5 0  12.11764705883209 2.5 0  12.25490196079247 2.5 0  1
[...]
<PointData  Vectors="f_17"> 
<DataArray  type="Float64"  Name="f_17"  NumberOfComponents="3" format="ascii">1.0000001314225215e+00 0.0000000000000000e+00 0.0000000000000000e+00  1.0402874202231658e+00 0.0000000000000000e+00 0.0000000000000000e+00  1.0652134284205543e+00 0.0000000000000000e+00 0.0000000000000000e+00  1.0939923514043512e+00 0.0000000000000000e+00 0.0000000000000000e+00  1.0725003374589666e+00 0.0000000000000000e+00 0.0000000000000000e+00  1.0491578525929715e+00 0.0000000000000000e+00 0.0000000000000000e+00  1.0405835787610029e+00 0.0000000000000000e+00 0.0000000000000000e+00  1.0000001314225215e+00 0.0000000000000000e+00 0.0000000000000000e+00  1.0230166568329604e+00 -4.9687146634732837e-02 0.0000000000000000e+00  1.0777270244861592e+00 8.9437120299444936e-02 0.0000000000000000e+00  1.1474045234627130e+00 1.6235983113220370e-02 0.0000000000000000e+00  9.8654913341676564e-01 1.0350601531241933e-02 0.0000000000000000e+00  1.0253253360387611e+00 5.2007434263216655e-02 0.0000000000000000e+00  1.0198005489285573e+00 5.1932837022633273e-02 0.0000000000000000e+00  0.0000000000000000e+00 0.0000000000000000e+00 0.0000000000000000e+00  0.0000000000000000e+00 0.0000000000000000e+00 0.0000000000000000e+00  1.0000001314225215e+00 0.0000000000000000e+00 0.0000000000000000e+00  9.9930983922020777e-01 0.0000000000000000e+00 0.0000000000000000e+00  9.9881832117442848e-01 0.0000000000000000e+00 0.0000000000000000e+00  1.0009413046748594e+00 0.0000000000000000e+00 0.0000000000000000e+00  1.0008299895275390e+00 0.0000000000000000e+00 0.0000000000000000e+00  1.0018578667727698e+00 0.0000000000000000e+00 0.0000000000000000e+00  1.0022043959686280e+00 0.0000000000000000e+00 0.0000000000000000e+00  1.0024797400087653e+00 0.0000000000000000e+00 0.0000000000000000e+00  1.0032397182469677e+00 0.0000000000000000e+00 0.0000000000000000e+00  1.0043806895388974e+00 0.0000000000000000e+00 0.0000000000000000e+00  1.0053882543530326e+00 0.0000000000000000e+00 0.0000000000000000e+00  1.0067566506785250e+00 0.0000000000000000e+00 0.0000000000000000e+00  1.0088629293878124e+00 0.0000000000000000e+00 0.0000000000000000e+00  1.0111072361462055e+00 0.0000000000000000e+00 0.0000000000000000e+00  1.0149476693376147e+00 0.0000000000000000e+00 0.0000000000000000e+00  1.0165561928705229e+00 0.0000000000000000e+00 0.0000000000000000e+00  1.0209754094190442e+00 0.0000000000000000e+00 0.0000000000000000e+00  1.0275334290347888e+00 0.0000000000000000e+00 0.0000000000000000e+00  1.0327125488182540e+00 0.0000000000000000e+00 0.0000000000000000e+00  1.0478195486357234e+00 0.0000000000000000e+00 0.0000000000000000e+00  1.0556972238426729e+00 0.0000000000000000e+00 0.0000000000000000e+00  1.0628979309864086e+00 0.0000000000000000e+00 0.0000000000000000e+00  1.0704457557430851e+00 0.0000000000000000e+00 0.0000000000000000e+00  1.0765223520342733e+00 0.0000000000000000e+00 0.0000000000000000e+00  1.0819344017747299e+00 0.0000000000000000e+00 0.0000000000000000e+00  1.0870849898461143e+00 0.0000000000000000e+00 0.0000000000000000e+00  1.0899525586412597e+00 0.0000000000000000e+00 0.0000000000000000e+00  1.0922925775909740e+00 0.0000000000000000e+00 0.0000000000000000e+00  1.0933418798553884e+00 0.0000000000000000e+00 0.0000000000000000e+00  1.0937618112955134e+00 0.0000000000000000e+00 0.0000000000000000e+00  1.0920465033178210e+00 0.0000000000000000e+00 0.0000000000000000e+00  1.0900583889023436e+00 0.0000000000000000e+00 0.0000000000000000e+00  1.0864268691243881e+00 0.0000000000000000e+00 0.0000000000000000e+00  1.0811559971082714e+00 0.0000000000000000e+00 0.0000000000000000e+00  1.0749792356584018e+00 0.0000000000000000e+00 0.0000000000000000e+00  1.0678257927213053e+00 0.0000000000000000e+00 0.0000000000000000e+00  1.0605841699401568e+00 0.0000000000000000e+00 0.0000000000000000e+00  1.0535674471457672e+00 0.0000000000000000e+00 0.0000000000000000e+00  1.0477177707902932e+00 0.0000000000000000e+00 0.0000000000000000e+00  1.0449257738481990e+00 0.0000000000000000e+00 0.0000000000000000e+00  1.0449342037700855e+00 0.0000000000000000e+00 0.0000000000000000e+00  1.0460329662102015e+00 0.0000000000000000e+00 0.0000000000000000e+00  1.0498068487890067e+00 0.0000000000000000e+00 0.0000000000000000e+00  1.0543893252611067e+00 0.0000000000000000e+00 0.0000000000000000e+00  1.0586540729279736e+00 0.0000000000000000e+00 0.0000000000000000e+00  1.0621193487789116e+00 0.0000000000000000e+00 0.0000000000000000e+00  1.0630034149067680e+00 0.0000000000000000e+00 0.0000000000000000e+00  1.0616030168025670e+00 0.0000000000000000e+00 0.0000000000000000e+00  1.0584589858822926e+00 0.0000000000000000e+00 0.0000000000000000e+00  1.0532245117916883e+00 0.0000000000000000e+00 0.0000000000000000e+00  1.0476450554213323e+00 0.0000000000000000e+00 0.0000000000000000e+00  1.0443574482543081e+00 0.0000000000000000e+00 0.0000000000000000e+00  1.0417255272976718e+00 0.0000000000000000e+00 0.0000000000000000e+00  1.0411074554964146e+00 0.0000000000000000e+00 0.0000000000000000e+00  1.0438434500026226e+00 0.0000000000000000e+00 0.0000000000000000e+00  1.0474911179586670e+00 0.0000000000000000e+00 0.0000000000000000e+00  1.0519933392708667e+00 0.0000000000000000e+00 0.0000000000000000e+00  1.0579985350806123e+00 0.0000000000000000e+00 0.0000000000000000e+00  1.0619226042390375e+00 0.0000000000000000e+00 0.0000000000000000e+00  1.0637172510411705e+00 0.0000000000000000e+00 0.0000000000000000e+00  1.0639868396986425e+00 0.0000000000000000e+00 0.0000000000000000e+00  1.0614783196537954e+00 0.0000000000000000e+00 0.0000000000000000e+00  1.0575843993799330e+00 0.0000000000000000e+00 0.0000000000000000e+00  1.0539536231320179e+00 0.0000000000000000e+00 0.0000000000000000e+00  1.0500835591762445e+00 0.0000000000000000e+00 0.0000000000000000e+00  1.0474680892472632e+00 0.0000000000000000e+00 0.0000000000000000e+00  1.0492675877341109e+00 0.0000000000000000e+00 0.0000000000000000e+00  1.0509457017287462e+00 0.0000000000000000e+00 0.0000000000000000e+00  1.0525363238577210e+00 0.0000000000000000e+00 0.0000000000000000e+00  1.0560061738255064e+00 0.0000000000000000e+00 0.0000000000000000e+00  1.0608050348001636e+00 0.0000000000000000e+00 0.0000000000000000e+00  1.0637200796802315e+00 0.0000000000000000e+00 0.0000000000000000e+00  1.0644121268281894e+00 0.0000000000000000e+00 0.0000000000000000e+00  1.0610959229245271e+00 0.0000000000000000e+00 0.0000000000000000e+00  1.0567279535056164e+00 0.0000000000000000e+00 0.0000000000000000e+00  1.0533869227670487e+00 0.0000000000000000e+00 0.0000000000000000e+00  1.0510697928503407e+00 0.0000000000000000e+00 0.0000000000000000e+00  1.0500971339927969e+00 0.0000000000000000e+00 0.0000000000000000e+00  1.0512514227085428e+00 0.0000000000000000e+00 0.0000000000000000e+00  1.0543851731197875e+00 0.0000000000000000e+00 0.0000000000000000e+00  1.0586638098683547e+00 0.0000000000000000e+00 0.0000000000000000e+00  1.0625378259543574e+00 0.0000000000000000e+00 0.0000000000000000e+00  1.0662011066464696e+00 0.0000000000000000e+00 0.0000000000000000e+00  1.0680109805441109e+00 0.0000000000000000e+00 0.0000000000000000e+00  1.0678142622002846e+00 0.0000000000000000e+00 0.0000000000000000e+00  1.0665066400032581e+00 0.0000000000000000e+00 0.0000000000000000e+00  1.0640683118292633e+00 0.0000000000000000e+00 0.0000000000000000e+00  1.0619536181454612e+00 0.0000000000000000e+00 0.0000000000000000e+00  1.0599076781709560e+00 0.0000000000000000e+00 0.0000000000000000e+00  1.0601070805632924e+00 0.0000000000000000e+00 0.0000000000000000e+00  1.0623359740341465e+00 0.0000000000000000e+00 0.0000000000000000e+00  1.0674393418093338e+00 0.0000000000000000e+00 0.0000000000000000e+00  1.0737596853508256e+00 0.0000000000000000e+00 0.0000000000000000e+00  1.0816032395828405e+00 0.0000000000000000e+00 0.0000000000000000e+00  1.0881114089377322e+00 0.0000000000000000e+00 0.0000000000000000e+00  1.0958877836602217e+00 -4.6200067106822850e-03 0.0000000000000000e+00  1.1011971455743252e+00 -9.9830216063578423e-03 0.0000000000000000e+00  1.1116971295566558e+00 -1.6933513290070163e-02 0.0000000000000000e+00  1.1296280851780511e+00 -2.6872321884572711e-02 0.0000000000000000e+00  1.1594659457489884e+00 -4.0824591999781022e-02 0.0000000000000000e+00  1.1868679376107261e+00 -5.8720799053953464e-02 0.0000000000000000e+00  1.1851328411278601e+00 -7.3329902333287053e-02 0.0000000000000000e+00  1.1256195447868700e+00 -7.9312841850264618e-02 0.0000000000000000e+00  1.0046172262763213e+00 -6.6171942435954895e-02 0.0000000000000000e+00  8.6049294826483991e-01 -3.4899489580020933e-02 0.0000000000000000e+00  7.5003876932945523e-01 -3.9766147081090088e-03 0.0000000000000000e+00  7.0623930809639113e-01 1.4765070063280638e-02 0.0000000000000000e+00  7.2400672253591181e-01 1.7038122579037456e-02 0.0000000000000000e+00  7.7869725820373026e-01 1.3913977557448868e-02 0.0000000000000000e+00  8.4443198029633748e-01 -1.4859766297225202e-03 0.0000000000000000e+00  9.0631134856000073e-01 -1.0749168387709708e-02 0.0000000000000000e+00  9.6041744449470046e-01 -9.6223263408664484e-03 0.0000000000000000e+00  1.0036503675166499e+00 -4.8788044088781063e-03 0.0000000000000000e+00  1.0335571576208478e+00 8.1580081674463719e-04 0.0000000000000000e+00  1.0532351840384235e+00 3.0018387086123851e-03 0.0000000000000000e+00  1.0639585041330599e+00 3.6366198463030105e-03 0.0000000000000000e+00  1.0700585795137727e+00 2.9923560864126204e-03 0.0000000000000000e+00  1.0722953135613802e+00 1.6059324869242188e-03 0.0000000000000000e+00  1.0715745652432191e+00 0.0000000000000000e+00 0.0000000000000000e+00  1.0722914635372540e+00 0.0000000000000000e+00 0.0000000000000000e+00  1.0737515234591890e+00 0.0000000000000000e+00 0.0000000000000000e+00  1.0753890137400344e+00 0.0000000000000000e+00 0.0000000000000000e+00  1.0754146184983981e+00 0.0000000000000000e+00 0.0000000000000000e+00  1.0743114866926888e+00 0.0000000000000000e+00 0.0000000000000000e+00  1.0717205812252579e+00 0.0000000000000000e+00 0.0000000000000000e+00  1.0677522112165767e+00 0.0000000000000000e+00 0.0000000000000000e+00  1.0625105091723717e+00 0.0000000000000000e+00 0.0000000000000000e+00  1.0578616420563913e+00 0.0000000000000000e+00 0.0000000000000000e+00  1.0545387949664309e+00 0.0000000000000000e+00 0.0000000000000000e+00  1.0529147155783305e+00 0.0000000000000000e+00 0.0000000000000000e+00  1.0535721087261234e+00 0.0000000000000000e+00 0.0000000000000000e+00  1.0565666744953470e+00 0.0000000000000000e+00 0.0000000000000000e+00  1.0598448466167358e+00 0.0000000000000000e+00 0.0000000000000000e+00  1.0638610604805387e+00 0.0000000000000000e+00 0.0000000000000000e+00  1.0655810172986424e+00 0.0000000000000000e+00 0.0000000000000000e+00  1.0660816536423587e+00 0.0000000000000000e+00 0.0000000000000000e+00  1.0643685566591961e+00 0.0000000000000000e+00 0.0000000000000000e+00  1.0615689181909351e+00 0.0000000000000000e+00 0.0000000000000000e+00  1.0576955130850652e+00 0.0000000000000000e+00 0.0000000000000000e+00  1.0532607939140821e+00 0.0000000000000000e+00 0.0000000000000000e+00  1.0505042482080673e+00 0.0000000000000000e+00 0.0000000000000000e+00  1.0490521319897932e+00 0.0000000000000000e+00 0.0000000000000000e+00  1.0515815798131596e+00 0.0000000000000000e+00 0.0000000000000000e+00  1.0542090965477677e+00 0.0000000000000000e+00 0.0000000000000000e+00  1.0587549945853931e+00 0.0000000000000000e+00 0.0000000000000000e+00  1.0635318670705973e+00 0.0000000000000000e+00 0.0000000000000000e+00  1.0654051850084334e+00 0.0000000000000000e+00 0.0000000000000000e+00  1.0633385596368017e+00 0.0000000000000000e+00 0.0000000000000000e+00  1.0614820653445756e+00 0.0000000000000000e+00 0.0000000000000000e+00  1.0578645485977916e+00 0.0000000000000000e+00 0.0000000000000000e+00  1.0527701466164618e+00 0.0000000000000000e+00 0.0000000000000000e+00  1.0487535472954026e+00 0.0000000000000000e+00 0.0000000000000000e+00  1.0460328340244396e+00 0.0000000000000000e+00 0.0000000000000000e+00  1.0445243811802893e+00 0.0000000000000000e+00 0.0000000000000000e+00  1.0458957817618584e+00 0.0000000000000000e+00 0.0000000000000000e+00  1.0490609501449073e+00 0.0000000000000000e+00 0.0000000000000000e+00  1.0524343485256684e+00 0.0000000000000000e+00 0.0000000000000000e+00  1.0572175791393665e+00 0.0000000000000000e+00 0.0000000000000000e+00  1.0609185401620866e+00 0.0000000000000000e+00 0.0000000000000000e+00  1.0619230507587494e+00 0.0000000000000000e+00 0.0000000000000000e+00  1.0613845977819134e+00 0.0000000000000000e+00 0.0000000000000000e+00  1.0583459140516340e+00 0.0000000000000000e+00 0.0000000000000000e+00  1.0524878530603752e+00 0.0000000000000000e+00 0.0000000000000000e+00  1.0474856613015247e+00 0.0000000000000000e+00 0.0000000000000000e+00  1.0428399953309397e+00 0.0000000000000000e+00 0.0000000000000000e+00  1.0389278372469961e+00 0.0000000000000000e+00 0.0000000000000000e+00  1.0377777322023414e+00 0.0000000000000000e+00 0.0000000000000000e+00  1.0391303760484034e+00 0.0000000000000000e+00 0.0000000000000000e+00  1.0424532429940165e+00 0.0000000000000000e+00 0.0000000000000000e+00  1.0478041148847492e+00 0.0000000000000000e+00 0.0000000000000000e+00  1.0539654314511686e+00 0.0000000000000000e+00 0.0000000000000000e+00  1.0595452469172730e+00 0.0000000000000000e+00 0.0000000000000000e+00  1.0647238321686130e+00 0.0000000000000000e+00 0.0000000000000000e+00  1.0669695080890660e+00 0.0000000000000000e+00 0.0000000000000000e+00  1.0676403004180803e+00 0.0000000000000000e+00 0.0000000000000000e+00  1.0676314306046144e+00 0.0000000000000000e+00 0.0000000000000000e+00  1.0666233157314402e+00 0.0000000000000000e+00 0.0000000000000000e+00  1.0652706144363469e+00 0.0000000000000000e+00 0.0000000000000000e+00  1.0645235269956679e+00 0.0000000000000000e+00 0.0000000000000000e+00  1.0657182382363304e+00 0.0000000000000000e+00 0.0000000000000000e+00  1.0693992278776427e+00 0.0000000000000000e+00 0.0000000000000000e+00  1.0737785930391015e+00 0.0000000000000000e+00 0.0000000000000000e+00  1.0787651477317524e+00 0.0000000000000000e+00 0.0000000000000000e+00  1.0852331195566765e+00 0.0000000000000000e+00 0.0000000000000000e+00  1.0891585086655795e+00 0.0000000000000000e+00 0.0000000000000000e+00  1.0923936463849737e+00 0.0000000000000000e+00 0.0000000000000000e+00  1.0931645750052028e+00 0.0000000000000000e+00 0.0000000000000000e+00  1.0910726075967521e+00 0.0000000000000000e+00 0.0000000000000000e+00  1.0868878416652870e+00 0.0000000000000000e+00 0.0000000000000000e+00  1.0811452771602779e+00 0.0000000000000000e+00 0.0000000000000000e+00  1.0740531249454355e+00 0.0000000000000000e+00 0.0000000000000000e+00  1.0653342423906806e+00 0.0000000000000000e+00 0.0000000000000000e+00  1.0573304279711184e+00 0.0000000000000000e+00 0.0000000000000000e+00  1.0487287775615985e+00 0.0000000000000000e+00 0.0000000000000000e+00  1.0327775199327121e+00 0.0000000000000000e+00 0.0000000000000000e+00  1.0260914437124318e+00 0.0000000000000000e+00 0.0000000000000000e+00  1.0208407496698708e+00 0.0000000000000000e+00 0.0000000000000000e+00  1.0161776402621043e+00 0.0000000000000000e+00 0.0000000000000000e+00  1.0123598912701919e+00 0.0000000000000000e+00 0.0000000000000000e+00  1.0093543752006100e+00 0.0000000000000000e+00 0.0000000000000000e+00  1.0070566900621127e+00 0.0000000000000000e+00 0.0000000000000000e+00  1.0048098649822934e+00 0.0000000000000000e+00 0.0000000000000000e+00  1.0032528650118493e+00 0.0000000000000000e+00 0.0000000000000000e+00  1.0021474136091713e+00 0.0000000000000000e+00 0.0000000000000000e+00  1.0009291569002838e+00 0.0000000000000000e+00 0.0000000000000000e+00  1.0007730006025481e+00 0.0000000000000000e+00 0.0000000000000000e+00  9.9975779672241594e-01 0.0000000000000000e+00 0.0000000000000000e+00  9.9980839047305758e-01 0.0000000000000000e+00 0.0000000000000000e+00  9.9952370808338409e-01 0.0000000000000000e+00 0.0000000000000000e+00  1.0003079296949835e+00 0.0000000000000000e+00 0.0000000000000000e+00  1.0001660851957492e+00 0.0000000000000000e+00 0.0000000000000000e+00  9.9978528184194215e-01 0.0000000000000000e+00 0.0000000000000000e+00  1.0000001314225215e+00 0.0000000000000000e+00 0.0000000000000000e+00  1.0000001314225215e+00 0.0000000000000000e+00 0.0000000000000000e+00  1.0000001314225215e+00 0.0000000000000000e+00 0.0000000000000000e+00  1.0000001314225215e+00 0.0000000000000000e+00 0.0000000000000000e+00  1.0000001314225215e+00 0.0000000000000000e+00 0.0000000000000000e+00  1.0000001314225215e+00 0.0000000000000000e+00 0.0000000000000000e+00  1.0000001314225215e+00 0.0000000000000000e+00 0.0000000000000000e+00  1.0000001314225215e+00 0.0000000000000000e+00 0.0000000000000000e+00  1.0000001314225215e+00 0.0000000000000000e+00 0.0000000000000000e+00  1.0000001314225215e+00 0.0000000000000000e+00 0.0000000000000000e+00  1.0000001314225215e+00 0.0000000000000000e+00 0.0000000000000000e+00  1.0000001314225215e+00 0.0000000000000000e+00 0.0000000000000000e+00  1.0000001314225215e+00 0.0000000000000000e+00 0.0000000000000000e+00  1.0000001314225215e+00 0.0000000000000000e+00 0.0000000000000000e+00  1.0000001314225215e+00 0.0000000000000000e+00 0.0000000000000000e+00  1.0000001314225215e+00 0.0000000000000000e+00 0.0000000000000000e+00  1.0000001314225215e+00 0.0000000000000000e+00 0.0000000000000000e+00  1.0000001314225215e+00 0.0000000000000000e+00 0.0000000000000000e+00  1.0000001314225215e+00 0.0000000000000000e+00 0.0000000000000000e+00  1.0000001314225215e+00 0.0000000000000000e+00 0.0000000000000000e+00  1.0397496994047393e+00 -8.8576443871103347e-03 0.0000000000000000e+00  1.0370549788453161e+00 -1.7958286016919817e-02 0.0000000000000000e+00  1.0353388304873326e+00 -2.8034581265332547e-02 0.0000000000000000e+00  1.0304312810754521e+00 -3.8590164221171924e-02 0.0000000000000000e+00  1.0257679967540252e+00 -5.2968397088262856e-02 0.0000000000000000e+00  1.0303249802137802e+00 -5.5847001113666542e-02 0.0000000000000000e+00  1.0343961256447392e+00 -5.8748326797635260e-02 0.0000000000000000e+00  1.0394805486532757e+00 -6.1250213127088171e-02 0.0000000000000000e+00  1.0447422202680046e+00 -6.3538746032692522e-02 0.0000000000000000e+00  1.0505636411320194e+00 -6.5304857098126515e-02 0.0000000000000000e+00  1.0568743956388493e+00 -6.6652438529538616e-02 0.0000000000000000e+00  1.0634725959305076e+00 -6.7252957303669286e-02 0.0000000000000000e+00  1.0704682498151306e+00 -6.7217435310539184e-02 0.0000000000000000e+00  1.0773511886856308e+00 -6.6221196123924603e-02 0.0000000000000000e+00  1.0843630515140736e+00 -6.4558113765542852e-02 0.0000000000000000e+00  1.0911009567868983e+00 -6.2150123020515265e-02 0.0000000000000000e+00  1.0976788572458396e+00 -5.8652140550763149e-02 0.0000000000000000e+00  1.1035389394349466e+00 -5.4265742909427671e-02 0.0000000000000000e+00  1.1087214740885474e+00 -4.9375763117079446e-02 0.0000000000000000e+00  1.1130851681167655e+00 -4.3883129898185561e-02 0.0000000000000000e+00  1.1164291062437761e+00 -3.7992755322599575e-02 0.0000000000000000e+00  1.1186885121575778e+00 -3.1876532125536282e-02 0.0000000000000000e+00  1.1199686096483115e+00 -2.5886492651418930e-02 0.0000000000000000e+00  1.1201784693051742e+00 -1.9905131378675500e-02 0.0000000000000000e+00  1.1194408843248280e+00 -1.4685982432424053e-02 0.0000000000000000e+00  1.1178396708150202e+00 -9.7102169262043379e-03 0.0000000000000000e+00  1.1154767476584773e+00 -5.5460935800974243e-03 0.0000000000000000e+00  1.1127509944009510e+00 -2.4482568425451159e-03 0.0000000000000000e+00  1.1096851427283789e+00 -3.6626288435948501e-04 0.0000000000000000e+00  1.1065770576935647e+00 6.9737385509254022e-04 0.0000000000000000e+00  1.1036795675063120e+00 8.8243105658670758e-04 0.0000000000000000e+00  1.1013055404808227e+00 7.1128893692129537e-05 0.0000000000000000e+00  1.0994838325622365e+00 -1.4497617253874657e-03 0.0000000000000000e+00  1.0986269754373628e+00 -3.4585894147679572e-03 0.0000000000000000e+00  1.0988012614573723e+00 -5.8402969507443097e-03 0.0000000000000000e+00  1.1000103953365012e+00 -8.14898282