<?xml version="1.0"?>
<VTKFile type="UnstructuredGrid"  version="0.1"  >
<UnstructuredGrid>
<Piece  NumberOfPoints="10199" NumberOfCells="20110">
<Points>
<DataArray  type="Float64"  NumberOfComponents="3"  format="ascii">0 -5 0  8 -5 0  30 -5 0  40 -5 0  40 5 0  30 5 0  8 5 0  0 5 0  8 -2.5 0  15 -2.5 0  30 -2.5 0  30 2.5 0  15 2.5 0  8 2.5 0  10 0.5 0  10 -0.5 0  0 0 0  0.4210526315780956 -5 0  0.8421052631563433 -5 0  1.263157894734281 -5 0  1.684210526311999 -5 0  2.105263157889717 -5 0  2.526315789467435 -5 0  2.947368421045153 -5 0  3.368421052622872 -5 0  3.78947368420059 -5 0  4.210526315779479 -5 0  4.631578947359537 -5 0  5.052631578939595 -5 0  5.473684210519653 -5 0  5.89473684209971 -5 0  6.315789473679768 -5 0  6.736842105259826 -5 0  7.157894736839884 -5 0  7.578947368419942 -5 0  8.407407407405314 -5 0  8.814814814810628 -5 0  9.222222222215942 -5 0  9.629629629621256 -5 0  10.03703703702657 -5 0  10.44444444443188 -5 0  10.8518518518372 -5 0  11.25925925924251 -5 0  11.66666666664783 -5 0  12.07407407405314 -5 0  12.48148148145846 -5 0  12.88888888886377 -5 0  13.29629629626908 -5 0  13.7037037036744 -5 0  14.11111111107971 -5 0  14.51851851848502 -5 0  14.92592592589034 -5 0  15.33333333329565 -5 0  15.74074074070096 -5 0  16.14814814810754 -5 0  16.55555555551614 -5 0  16.96296296292474 -5 0  17.37037037033335 -5 0  17.77777777774195 -5 0  18.18518518515056 -5 0  18.59259259255916 -5 0  18.99999999996776 -5 0  19.40740740737636 -5 0  19.81481481478497 -5 0  20.22222222219357 -5 0  20.62962962960217 -5 0  21.03703703701077 -5 0  21.44444444441937 -5 0  21.85185185182797 -5 0  22.25925925923657 -5 0  22.66666666664518 -5 0  23.07407407405378 -5 0  23.48148148146238 -5 0  23.88888888887098 -5 0  24.29629629627958 -5 0  24.70370370368818 -5 0  25.11111111109678 -5 0  25.51851851850539 -5 0  25.92592592591399 -5 0  26.33333333332259 -5 0  26.74074074073119 -5 0  27.14814814813979 -5 0  27.55555555554839 -5 0  27.96296296295699 -5 0  28.3703703703656 -5 0  28.7777777777742 -5 0  29.1851851851828 -5 0  29.5925925925914 -5 0  30.41666666667852 -5 0  30.83333333335704 -5 0  31.25000000003556 -5 0  31.66666666671408 -5 0  32.08333333338936 -5 0  32.50000000005308 -5 0  32.9166666667168 -5 0  33.33333333338052 -5 0  33.75000000004424 -5 0  34.16666666670795 -5 0  34.58333333337167 -5 0  35.00000000003539 -5 0  35.41666666669911 -5 0  35.83333333336282 -5 0  36.25000000002654 -5 0  36.66666666669026 -5 0  37.08333333335398 -5 0  37.50000000001769 -5 0  37.91666666668141 -5 0  38.33333333334513 -5 0  38.75000000000885 -5 0  39.16666666667257 -5 0  39.58333333333628 -5 0  40 -4.583333333332821 0  40 -4.166666666665642 0  40 -3.74999999999855 0  40 -3.333333333333135 0  40 -2.916666666667806 0  40 -2.500000000002478 0  40 -2.083333333337148 0  40 -1.666666666671818 0  40 -1.250000000006488 0  40 -0.8333333333405228 0  40 -0.4166666666733416 0  40 -6.163070054299169e-12 0  40 0.4166666666610173 0  40 0.8333333333281976 0  40 1.249999999995378 0  40 1.666666666662558 0  40 2.083333333329739 0  40 2.499999999996919 0  40 2.916666666664099 0  40 3.33333333333128 0  40 3.74999999999846 0  40 4.166666666665641 0  40 4.583333333332821 0  39.58333333333628 5 0  39.16666666667256 5 0  38.75000000000885 5 0  38.33333333334513 5 0  37.91666666668141 5 0  37.50000000001769 5 0  37.08333333335398 5 0  36.66666666669025 5 0  36.25000000002654 5 0  35.83333333336282 5 0  35.41666666669911 5 0  35.00000000003539 5 0  34.58333333337167 5 0  34.16666666670795 5 0  33.75000000004424 5 0  33.33333333338052 5 0  32.9166666667168 5 0  32.50000000005308 5 0  32.08333333338936 5 0  31.66666666671408 5 0  31.25000000003556 5 0  30.83333333335704 5 0  30.41666666667852 5 0  29.59259259259259 5 0  29.18518518518519 5 0  28.77777777777778 5 0  28.37037037037037 5 0  27.96296296296296 5 0  27.55555555555556 5 0  27.14814814814815 5 0  26.74074074074074 5 0  26.33333333333333 5 0  25.92592592592593 5 0  25.51851851851852 5 0  25.11111111111111 5 0  24.7037037037037 5 0  24.2962962962963 5 0  23.88888888888889 5 0  23.48148148148148 5 0  23.07407407407408 5 0  22.66666666666667 5 0  22.25925925925926 5 0  21.85185185185185 5 0  21.44444444444445 5 0  21.03703703703704 5 0  20.62962962962963 5 0  20.22222222222222 5 0  19.81481481481482 5 0  19.40740740740741 5 0  19 5 0  18.5925925925926 5 0  18.18518518518519 5 0  17.77777777777778 5 0  17.37037037037037 5 0  16.96296296296296 5 0  16.55555555555556 5 0  16.14814814814815 5 0  15.74074074074074 5 0  15.33333333333333 5 0  14.92592592592593 5 0  14.51851851851852 5 0  14.11111111111111 5 0  13.70370370370371 5 0  13.2962962962963 5 0  12.88888888888889 5 0  12.48148148148148 5 0  12.07407407407408 5 0  11.66666666666667 5 0  11.25925925925926 5 0  10.85185185185185 5 0  10.44444444444445 5 0  10.03703703703704 5 0  9.629629629629633 5 0  9.222222222222221 5 0  8.814814814814817 5 0  8.407407407407408 5 0  7.5789473684193 5 0  7.157894736838599 5 0  6.73684210526082 5 0  6.315789473684795 5 0  5.894736842108769 5 0  5.473684210532742 5 0  5.052631578956715 5 0  4.631578947380689 5 0  4.210526315804662 5 0  3.789473684226299 5 0  3.368421052645599 5 0  2.947368421064898 5 0  2.526315789484198 5 0  2.105263157903499 5 0  1.6842105263228 5 0  1.2631578947421 5 0  0.8421052631613994 5 0  0.4210526315806993 5 0  0 4.545454545454545 0  0 4.09090909090909 0  0 3.636363636363634 0  0 3.18181818181818 0  0 2.727272727272726 0  0 2.272727272727271 0  0 1.818181818181817 0  0 1.363636363636363 0  0 0.9090909090909092 0  0 0.454545454545455 0  0 -0.4545454545450807 0  0 -0.9090909090895867 0  0 -1.363636363633713 0  0 -1.818181818177841 0  0 -2.272727272723127 0  0 -2.727272727269273 0  0 -3.181818181815419 0  0 -3.636363636361564 0  0 -4.090909090907709 0  0 -4.545454545453855 0  8 -4.499999999999999 0  8 -3.999999999999999 0  8 -3.499999999999999 0  8 -3 0  8.137254901963859 -2.5 0  8.274509803926303 -2.5 0  8.411764705886863 -2.5 0  8.549019607849138 -2.5 0  8.686274509809513 -2.5 0  8.82352941176989 -2.5 0  8.960784313730265 -2.5 0  9.098039215690642 -2.5 0  9.235294117651017 -2.5 0  9.372549019611395 -2.5 0  9.50980392157177 -2.5 0  9.647058823532147 -2.5 0  9.784313725492522 -2.5 0  9.921568627452897 -2.5 0  10.05882352941327 -2.5 0  10.19607843137365 -2.5 0  10.33333333333402 -2.5 0  10.4705882352944 -2.5 0  10.60784313725478 -2.5 0  10.74509803921515 -2.5 0  10.88235294117553 -2.5 0  11.0196078431359 -2.5 0  11.15686274509628 -2.5 0  11.29411764705665 -2.5 0  11.43137254901703 -2.5 0  11.56862745097915 -2.5 0  11.70588235294301 -2.5 0  11.84313725490686 -2.5 0  11.98039215687072 -2.5 0  12.11764705883209 -2.5 0  12.25490196079247 -2.5 0  12.39215686275285 -2.5 0  12.52941176471322 -2.5 0  12.6666666666736 -2.5 0  12.80392156863397 -2.5 0  12.94117647059435 -2.5 0  13.07843137255473 -2.5 0  13.2156862745151 -2.5 0  13.35294117647548 -2.5 0  13.49019607843586 -2.5 0  13.62745098039623 -2.5 0  13.76470588235661 -2.5 0  13.90196078431699 -2.5 0  14.03921568627736 -2.5 0  14.17647058823774 -2.5 0  14.31372549019812 -2.5 0  14.45098039215849 -2.5 0  14.58823529411887 -2.5 0  14.72549019607925 -2.5 0  14.86274509803962 -2.5 0  15.20270270270254 -2.5 0  15.40540540540509 -2.5 0  15.60810810810763 -2.5 0  15.81081081081017 -2.5 0  16.01351351351227 -2.5 0  16.21621621621265 -2.5 0  16.41891891891279 -2.5 0  16.62162162161294 -2.5 0  16.82432432431308 -2.5 0  17.02702702701322 -2.5 0  17.22972972971337 -2.5 0  17.43243243241351 -2.5 0  17.63513513511365 -2.5 0  17.83783783781379 -2.5 0  18.04054054051394 -2.5 0  18.24324324321408 -2.5 0  18.44594594591422 -2.5 0  18.64864864861436 -2.5 0  18.85135135131451 -2.5 0  19.05405405401465 -2.5 0  19.25675675671479 -2.5 0  19.45945945941494 -2.5 0  19.66216216211508 -2.5 0  19.86486486481522 -2.5 0  20.06756756751536 -2.5 0  20.27027027021551 -2.5 0  20.47297297291565 -2.5 0  20.6756756756158 -2.5 0  20.87837837831594 -2.5 0  21.08108108101608 -2.5 0  21.28378378371622 -2.5 0  21.48648648641637 -2.5 0  21.68918918911651 -2.5 0  21.89189189181666 -2.5 0  22.0945945945168 -2.5 0  22.29729729721694 -2.5 0  22.49999999991778 -2.5 0  22.70270270262203 -2.5 0  22.90540540532697 -2.5 0  23.10810810803191 -2.5 0  23.31081081073686 -2.5 0  23.5135135134418 -2.5 0  23.71621621614674 -2.5 0  23.91891891885169 -2.5 0  24.12162162155663 -2.5 0  24.32432432426158 -2.5 0  24.52702702696652 -2.5 0  24.72972972967146 -2.5 0  24.93243243237641 -2.5 0  25.13513513508135 -2.5 0  25.3378378377863 -2.5 0  25.54054054049124 -2.5 0  25.74324324319618 -2.5 0  25.94594594590112 -2.5 0  26.14864864860607 -2.5 0  26.35135135131101 -2.5 0  26.55405405401596 -2.5 0  26.7567567567209 -2.5 0  26.95945945942584 -2.5 0  27.16216216213079 -2.5 0  27.36486486483573 -2.5 0  27.56756756754068 -2.5 0  27.77027027024562 -2.5 0  27.97297297295056 -2.5 0  28.1756756756555 -2.5 0  28.37837837836045 -2.5 0  28.5810810810654 -2.5 0  28.78378378377034 -2.5 0  28.98648648647528 -2.5 0  29.18918918918023 -2.5 0  29.39189189188517 -2.5 0  29.59459459459011 -2.5 0  29.79729729729506 -2.5 0  30 -3.000000000000001 0  30 -3.500000000000001 0  30 -4.000000000000001 0  30 -4.5 0  8 4.499999999999999 0  8 3.999999999999999 0  8 3.499999999999999 0  8 3 0  8.137254901963859 2.5 0  8.274509803926303 2.5 0  8.411764705886863 2.5 0  8.549019607849138 2.5 0  8.686274509809513 2.5 0  8.82352941176989 2.5 0  8.960784313730265 2.5 0  9.098039215690642 2.5 0  9.235294117651017 2.5 0  9.372549019611395 2.5 0  9.50980392157177 2.5 0  9.647058823532147 2.5 0  9.784313725492522 2.5 0  9.921568627452897 2.5 0  10.05882352941327 2.5 0  10.19607843137365 2.5 0  10.33333333333402 2.5 0  10.4705882352944 2.5 0  10.60784313725478 2.5 0  10.74509803921515 2.5 0  10.88235294117553 2.5 0  11.0196078431359 2.5 0  11.15686274509628 2.5 0  11.29411764705665 2.5 0  11.43137254901703 2.5 0  11.56862745097915 2.5 0  11.70588235294301 2.5 0  11.84313725490686 2.5 0  11.98039215687072 2.5 0  12.11764705883209 2.5 0  12.25490196079247 2.5 0  1
[...]
<PointData  Vectors="f_17"> 
<DataArray  type="Float64"  Name="f_17"  NumberOfComponents="3" format="ascii">1.0000001312203282e+00 0.0000000000000000e+00 0.0000000000000000e+00  1.0399767118982153e+00 0.0000000000000000e+00 0.0000000000000000e+00  1.0665690924325286e+00 0.0000000000000000e+00 0.0000000000000000e+00  1.0978277600636095e+00 0.0000000000000000e+00 0.0000000000000000e+00  1.0796195627608767e+00 0.0000000000000000e+00 0.0000000000000000e+00  1.0508879051874489e+00 0.0000000000000000e+00 0.0000000000000000e+00  1.0409083432636426e+00 0.0000000000000000e+00 0.0000000000000000e+00  1.0000001312203282e+00 0.0000000000000000e+00 0.0000000000000000e+00  1.0223212687274763e+00 -4.9495611400168379e-02 0.0000000000000000e+00  1.0665450509499603e+00 9.1085434630443482e-02 0.0000000000000000e+00  1.1397496159893119e+00 2.9326008020010057e-02 0.0000000000000000e+00  9.9207217493979583e-01 2.4967324679299938e-02 0.0000000000000000e+00  1.0392656233997610e+00 5.8280262139752868e-02 0.0000000000000000e+00  1.0204911064619280e+00 5.2137226969310724e-02 0.0000000000000000e+00  0.0000000000000000e+00 0.0000000000000000e+00 0.0000000000000000e+00  0.0000000000000000e+00 0.0000000000000000e+00 0.0000000000000000e+00  1.0000001312203282e+00 0.0000000000000000e+00 0.0000000000000000e+00  9.9930776759788853e-01 0.0000000000000000e+00 0.0000000000000000e+00  9.9880979795713010e-01 0.0000000000000000e+00 0.0000000000000000e+00  1.0009246019686222e+00 0.0000000000000000e+00 0.0000000000000000e+00  1.0007931456960502e+00 0.0000000000000000e+00 0.0000000000000000e+00  1.0017957995644677e+00 0.0000000000000000e+00 0.0000000000000000e+00  1.0021123394328788e+00 0.0000000000000000e+00 0.0000000000000000e+00  1.0023553365959044e+00 0.0000000000000000e+00 0.0000000000000000e+00  1.0030849887696653e+00 0.0000000000000000e+00 0.0000000000000000e+00  1.0041965324921205e+00 0.0000000000000000e+00 0.0000000000000000e+00  1.0051816647032072e+00 0.0000000000000000e+00 0.0000000000000000e+00  1.0065287762952864e+00 0.0000000000000000e+00 0.0000000000000000e+00  1.0086218878801498e+00 0.0000000000000000e+00 0.0000000000000000e+00  1.0108519271966236e+00 0.0000000000000000e+00 0.0000000000000000e+00  1.0146775387278988e+00 0.0000000000000000e+00 0.0000000000000000e+00  1.0162702763083380e+00 0.0000000000000000e+00 0.0000000000000000e+00  1.0206744587000924e+00 0.0000000000000000e+00 0.0000000000000000e+00  1.0272210462864557e+00 0.0000000000000000e+00 0.0000000000000000e+00  1.0323933455080581e+00 0.0000000000000000e+00 0.0000000000000000e+00  1.0475407814453475e+00 0.0000000000000000e+00 0.0000000000000000e+00  1.0554826279599383e+00 0.0000000000000000e+00 0.0000000000000000e+00  1.0627904909960297e+00 0.0000000000000000e+00 0.0000000000000000e+00  1.0704972432287259e+00 0.0000000000000000e+00 0.0000000000000000e+00  1.0767803857979816e+00 0.0000000000000000e+00 0.0000000000000000e+00  1.0824446548944409e+00 0.0000000000000000e+00 0.0000000000000000e+00  1.0878650658744993e+00 0.0000000000000000e+00 0.0000000000000000e+00  1.0909811036263488e+00 0.0000000000000000e+00 0.0000000000000000e+00  1.0935064682831823e+00 0.0000000000000000e+00 0.0000000000000000e+00  1.0946135038538309e+00 0.0000000000000000e+00 0.0000000000000000e+00  1.0949184675285637e+00 0.0000000000000000e+00 0.0000000000000000e+00  1.0928921002129406e+00 0.0000000000000000e+00 0.0000000000000000e+00  1.0904311202538692e+00 0.0000000000000000e+00 0.0000000000000000e+00  1.0862142258161998e+00 0.0000000000000000e+00 0.0000000000000000e+00  1.0803730625477934e+00 0.0000000000000000e+00 0.0000000000000000e+00  1.0737465390434662e+00 0.0000000000000000e+00 0.0000000000000000e+00  1.0663645950374314e+00 0.0000000000000000e+00 0.0000000000000000e+00  1.0591912762252231e+00 0.0000000000000000e+00 0.0000000000000000e+00  1.0525519838765061e+00 0.0000000000000000e+00 0.0000000000000000e+00  1.0473412976151131e+00 0.0000000000000000e+00 0.0000000000000000e+00  1.0453594363089302e+00 0.0000000000000000e+00 0.0000000000000000e+00  1.0461851572247827e+00 0.0000000000000000e+00 0.0000000000000000e+00  1.0479626446259134e+00 0.0000000000000000e+00 0.0000000000000000e+00  1.0521000652959362e+00 0.0000000000000000e+00 0.0000000000000000e+00  1.0566431326476902e+00 0.0000000000000000e+00 0.0000000000000000e+00  1.0604394248476532e+00 0.0000000000000000e+00 0.0000000000000000e+00  1.0630948762049266e+00 0.0000000000000000e+00 0.0000000000000000e+00  1.0630044988519027e+00 0.0000000000000000e+00 0.0000000000000000e+00  1.0606977645881257e+00 0.0000000000000000e+00 0.0000000000000000e+00  1.0568914955316429e+00 0.0000000000000000e+00 0.0000000000000000e+00  1.0513995639908935e+00 0.0000000000000000e+00 0.0000000000000000e+00  1.0459726732639298e+00 0.0000000000000000e+00 0.0000000000000000e+00  1.0432269970671524e+00 0.0000000000000000e+00 0.0000000000000000e+00  1.0413845242264870e+00 0.0000000000000000e+00 0.0000000000000000e+00  1.0416488987143071e+00 0.0000000000000000e+00 0.0000000000000000e+00  1.0451955720183768e+00 0.0000000000000000e+00 0.0000000000000000e+00  1.0494082276117735e+00 0.0000000000000000e+00 0.0000000000000000e+00  1.0541153426103276e+00 0.0000000000000000e+00 0.0000000000000000e+00  1.0599126814231263e+00 0.0000000000000000e+00 0.0000000000000000e+00  1.0632995730433601e+00 0.0000000000000000e+00 0.0000000000000000e+00  1.0643534528371705e+00 0.0000000000000000e+00 0.0000000000000000e+00  1.0638819334074796e+00 0.0000000000000000e+00 0.0000000000000000e+00  1.0608326367354748e+00 0.0000000000000000e+00 0.0000000000000000e+00  1.0567357995279827e+00 0.0000000000000000e+00 0.0000000000000000e+00  1.0532803763440957e+00 0.0000000000000000e+00 0.0000000000000000e+00  1.0499067680087806e+00 0.0000000000000000e+00 0.0000000000000000e+00  1.0479963256813269e+00 0.0000000000000000e+00 0.0000000000000000e+00  1.0505756222440241e+00 0.0000000000000000e+00 0.0000000000000000e+00  1.0529231489760860e+00 0.0000000000000000e+00 0.0000000000000000e+00  1.0549638525436069e+00 0.0000000000000000e+00 0.0000000000000000e+00  1.0585604276650806e+00 0.0000000000000000e+00 0.0000000000000000e+00  1.0631689625537071e+00 0.0000000000000000e+00 0.0000000000000000e+00  1.0656213123356024e+00 0.0000000000000000e+00 0.0000000000000000e+00  1.0652584237132139e+00 0.0000000000000000e+00 0.0000000000000000e+00  1.0616945717311892e+00 0.0000000000000000e+00 0.0000000000000000e+00  1.0574402193134116e+00 0.0000000000000000e+00 0.0000000000000000e+00  1.0545644823986513e+00 0.0000000000000000e+00 0.0000000000000000e+00  1.0530395533481913e+00 0.0000000000000000e+00 0.0000000000000000e+00  1.0529437070066872e+00 0.0000000000000000e+00 0.0000000000000000e+00  1.0549333100256870e+00 0.0000000000000000e+00 0.0000000000000000e+00  1.0586203339408156e+00 0.0000000000000000e+00 0.0000000000000000e+00  1.0631171559249588e+00 0.0000000000000000e+00 0.0000000000000000e+00  1.0668173083540384e+00 0.0000000000000000e+00 0.0000000000000000e+00  1.0700358412990232e+00 0.0000000000000000e+00 0.0000000000000000e+00  1.0712844498261209e+00 0.0000000000000000e+00 0.0000000000000000e+00  1.0706453698874279e+00 0.0000000000000000e+00 0.0000000000000000e+00  1.0691706205727252e+00 0.0000000000000000e+00 0.0000000000000000e+00  1.0669569063293931e+00 0.0000000000000000e+00 0.0000000000000000e+00  1.0654711881953836e+00 0.0000000000000000e+00 0.0000000000000000e+00  1.0643838333758160e+00 0.0000000000000000e+00 0.0000000000000000e+00  1.0656783946573951e+00 0.0000000000000000e+00 0.0000000000000000e+00  1.0688994171962261e+00 0.0000000000000000e+00 0.0000000000000000e+00  1.0746394243025252e+00 0.0000000000000000e+00 0.0000000000000000e+00  1.0809967643476051e+00 0.0000000000000000e+00 0.0000000000000000e+00  1.0881847885300266e+00 0.0000000000000000e+00 0.0000000000000000e+00  1.0934642279165947e+00 0.0000000000000000e+00 0.0000000000000000e+00  1.0996732784826966e+00 -2.9850927653775690e-03 0.0000000000000000e+00  1.1048477664307872e+00 -6.1861569043332662e-03 0.0000000000000000e+00  1.1151356159497827e+00 -9.8024344419624029e-03 0.0000000000000000e+00  1.1328554609034034e+00 -1.4247874454477640e-02 0.0000000000000000e+00  1.1628539090106087e+00 -1.8509357169732350e-02 0.0000000000000000e+00  1.1904478401683911e+00 -2.2707706249910021e-02 0.0000000000000000e+00  1.1866723394239904e+00 -1.7104262204880247e-02 0.0000000000000000e+00  1.1237918906887596e+00 -3.1207118768412354e-03 0.0000000000000000e+00  9.9910919555181810e-01 2.5060583644645414e-02 0.0000000000000000e+00  8.5070407651824786e-01 5.9940843224230669e-02 0.0000000000000000e+00  7.3758838308451924e-01 8.8945735006950077e-02 0.0000000000000000e+00  6.9199911013365556e-01 1.0192411273582702e-01 0.0000000000000000e+00  7.1241303495532449e-01 9.8163998209056760e-02 0.0000000000000000e+00  7.7069190885353522e-01 9.0165608026562719e-02 0.0000000000000000e+00  8.4235124902321334e-01 6.7675131816219772e-02 0.0000000000000000e+00  9.0658223736259624e-01 4.3083139747001571e-02 0.0000000000000000e+00  9.6103787746968206e-01 2.7040314226402372e-02 0.0000000000000000e+00  1.0062590145559620e+00 1.9088917161054111e-02 0.0000000000000000e+00  1.0383159152614618e+00 1.7039287173346695e-02 0.0000000000000000e+00  1.0593817028414965e+00 1.3597814316089283e-02 0.0000000000000000e+00  1.0707789092363904e+00 1.0333092325588837e-02 0.0000000000000000e+00  1.0771111147179344e+00 6.9031239462112037e-03 0.0000000000000000e+00  1.0794091738584559e+00 3.3924847270779806e-03 0.0000000000000000e+00  1.0770455673262034e+00 0.0000000000000000e+00 0.0000000000000000e+00  1.0763731462519683e+00 0.0000000000000000e+00 0.0000000000000000e+00  1.0769052861976802e+00 0.0000000000000000e+00 0.0000000000000000e+00  1.0782271262515390e+00 0.0000000000000000e+00 0.0000000000000000e+00  1.0784861927099361e+00 0.0000000000000000e+00 0.0000000000000000e+00  1.0780087166761687e+00 0.0000000000000000e+00 0.0000000000000000e+00  1.0762199746393633e+00 0.0000000000000000e+00 0.0000000000000000e+00  1.0729131107649581e+00 0.0000000000000000e+00 0.0000000000000000e+00  1.0679594618323867e+00 0.0000000000000000e+00 0.0000000000000000e+00  1.0631419031252014e+00 0.0000000000000000e+00 0.0000000000000000e+00  1.0591904202857623e+00 0.0000000000000000e+00 0.0000000000000000e+00  1.0566556566597693e+00 0.0000000000000000e+00 0.0000000000000000e+00  1.0563199590420662e+00 0.0000000000000000e+00 0.0000000000000000e+00  1.0584744016357768e+00 0.0000000000000000e+00 0.0000000000000000e+00  1.0612257738554129e+00 0.0000000000000000e+00 0.0000000000000000e+00  1.0651044499806719e+00 0.0000000000000000e+00 0.0000000000000000e+00  1.0670577059866759e+00 0.0000000000000000e+00 0.0000000000000000e+00  1.0680345057320031e+00 0.0000000000000000e+00 0.0000000000000000e+00  1.0668612028112483e+00 0.0000000000000000e+00 0.0000000000000000e+00  1.0645026977646710e+00 0.0000000000000000e+00 0.0000000000000000e+00  1.0608018672648725e+00 0.0000000000000000e+00 0.0000000000000000e+00  1.0561981865709018e+00 0.0000000000000000e+00 0.0000000000000000e+00  1.0529595365690028e+00 0.0000000000000000e+00 0.0000000000000000e+00  1.0500146712038188e+00 0.0000000000000000e+00 0.0000000000000000e+00  1.0518374977956610e+00 0.0000000000000000e+00 0.0000000000000000e+00  1.0540170532361497e+00 0.0000000000000000e+00 0.0000000000000000e+00  1.0584524855342785e+00 0.0000000000000000e+00 0.0000000000000000e+00  1.0634917476813817e+00 0.0000000000000000e+00 0.0000000000000000e+00  1.0659039871946694e+00 0.0000000000000000e+00 0.0000000000000000e+00  1.0645150639525023e+00 0.0000000000000000e+00 0.0000000000000000e+00  1.0632512063942403e+00 0.0000000000000000e+00 0.0000000000000000e+00  1.0599851367762660e+00 0.0000000000000000e+00 0.0000000000000000e+00  1.0549015173134058e+00 0.0000000000000000e+00 0.0000000000000000e+00  1.0505360868316831e+00 0.0000000000000000e+00 0.0000000000000000e+00  1.0471736900243787e+00 0.0000000000000000e+00 0.0000000000000000e+00  1.0448659501471738e+00 0.0000000000000000e+00 0.0000000000000000e+00  1.0454519494131433e+00 0.0000000000000000e+00 0.0000000000000000e+00  1.0480014016386803e+00 0.0000000000000000e+00 0.0000000000000000e+00  1.0510553799531168e+00 0.0000000000000000e+00 0.0000000000000000e+00  1.0559186578434057e+00 0.0000000000000000e+00 0.0000000000000000e+00  1.0600896048238744e+00 0.0000000000000000e+00 0.0000000000000000e+00  1.0618665307894934e+00 0.0000000000000000e+00 0.0000000000000000e+00  1.0622120261921852e+00 0.0000000000000000e+00 0.0000000000000000e+00  1.0599643519907904e+00 0.0000000000000000e+00 0.0000000000000000e+00  1.0546130561732276e+00 0.0000000000000000e+00 0.0000000000000000e+00  1.0496875203929252e+00 0.0000000000000000e+00 0.0000000000000000e+00  1.0447034773318733e+00 0.0000000000000000e+00 0.0000000000000000e+00  1.0400912339342505e+00 0.0000000000000000e+00 0.0000000000000000e+00  1.0380504760581404e+00 0.0000000000000000e+00 0.0000000000000000e+00  1.0384784722475278e+00 0.0000000000000000e+00 0.0000000000000000e+00  1.0410272125919984e+00 0.0000000000000000e+00 0.0000000000000000e+00  1.0458821510362202e+00 0.0000000000000000e+00 0.0000000000000000e+00  1.0519288103432924e+00 0.0000000000000000e+00 0.0000000000000000e+00  1.0577809648934289e+00 0.0000000000000000e+00 0.0000000000000000e+00  1.0635804001293294e+00 0.0000000000000000e+00 0.0000000000000000e+00  1.0666481582999587e+00 0.0000000000000000e+00 0.0000000000000000e+00  1.0681817808848022e+00 0.0000000000000000e+00 0.0000000000000000e+00  1.0688749866168499e+00 0.0000000000000000e+00 0.0000000000000000e+00  1.0682778924995475e+00 0.0000000000000000e+00 0.0000000000000000e+00  1.0669851279013634e+00 0.0000000000000000e+00 0.0000000000000000e+00  1.0659641155654698e+00 0.0000000000000000e+00 0.0000000000000000e+00  1.0666599844731601e+00 0.0000000000000000e+00 0.0000000000000000e+00  1.0697372576611677e+00 0.0000000000000000e+00 0.0000000000000000e+00  1.0735250330618953e+00 0.0000000000000000e+00 0.0000000000000000e+00  1.0780496618420750e+00 0.0000000000000000e+00 0.0000000000000000e+00  1.0842215877416397e+00 0.0000000000000000e+00 0.0000000000000000e+00  1.0880409872631929e+00 0.0000000000000000e+00 0.0000000000000000e+00  1.0913239866369580e+00 0.0000000000000000e+00 0.0000000000000000e+00  1.0922646486384979e+00 0.0000000000000000e+00 0.0000000000000000e+00  1.0903972112622975e+00 0.0000000000000000e+00 0.0000000000000000e+00  1.0864598380273021e+00 0.0000000000000000e+00 0.0000000000000000e+00  1.0809503325119310e+00 0.0000000000000000e+00 0.0000000000000000e+00  1.0740485960383312e+00 0.0000000000000000e+00 0.0000000000000000e+00  1.0654776937338144e+00 0.0000000000000000e+00 0.0000000000000000e+00  1.0575707569269130e+00 0.0000000000000000e+00 0.0000000000000000e+00  1.0490267047711339e+00 0.0000000000000000e+00 0.0000000000000000e+00  1.0331079774612779e+00 0.0000000000000000e+00 0.0000000000000000e+00  1.0264120193751509e+00 0.0000000000000000e+00 0.0000000000000000e+00  1.0211462886676652e+00 0.0000000000000000e+00 0.0000000000000000e+00  1.0164660446717082e+00 0.0000000000000000e+00 0.0000000000000000e+00  1.0126334352168769e+00 0.0000000000000000e+00 0.0000000000000000e+00  1.0096140528113344e+00 0.0000000000000000e+00 0.0000000000000000e+00  1.0073013580896963e+00 0.0000000000000000e+00 0.0000000000000000e+00  1.0050388523637976e+00 0.0000000000000000e+00 0.0000000000000000e+00  1.0034596367751234e+00 0.0000000000000000e+00 0.0000000000000000e+00  1.0023313954563593e+00 0.0000000000000000e+00 0.0000000000000000e+00  1.0010852789048659e+00 0.0000000000000000e+00 0.0000000000000000e+00  1.0008971467849013e+00 0.0000000000000000e+00 0.0000000000000000e+00  9.9984854186314176e-01 0.0000000000000000e+00 0.0000000000000000e+00  9.9987044046770224e-01 0.0000000000000000e+00 0.0000000000000000e+00  9.9956093283585934e-01 0.0000000000000000e+00 0.0000000000000000e+00  1.0003249429833803e+00 0.0000000000000000e+00 0.0000000000000000e+00  1.0001719976276620e+00 0.0000000000000000e+00 0.0000000000000000e+00  9.9978609932603468e-01 0.0000000000000000e+00 0.0000000000000000e+00  1.0000001312203282e+00 0.0000000000000000e+00 0.0000000000000000e+00  1.0000001312203282e+00 0.0000000000000000e+00 0.0000000000000000e+00  1.0000001312203282e+00 0.0000000000000000e+00 0.0000000000000000e+00  1.0000001312203282e+00 0.0000000000000000e+00 0.0000000000000000e+00  1.0000001312203282e+00 0.0000000000000000e+00 0.0000000000000000e+00  1.0000001312203282e+00 0.0000000000000000e+00 0.0000000000000000e+00  1.0000001312203282e+00 0.0000000000000000e+00 0.0000000000000000e+00  1.0000001312203282e+00 0.0000000000000000e+00 0.0000000000000000e+00  1.0000001312203282e+00 0.0000000000000000e+00 0.0000000000000000e+00  1.0000001312203282e+00 0.0000000000000000e+00 0.0000000000000000e+00  1.0000001312203282e+00 0.0000000000000000e+00 0.0000000000000000e+00  1.0000001312203282e+00 0.0000000000000000e+00 0.0000000000000000e+00  1.0000001312203282e+00 0.0000000000000000e+00 0.0000000000000000e+00  1.0000001312203282e+00 0.0000000000000000e+00 0.0000000000000000e+00  1.0000001312203282e+00 0.0000000000000000e+00 0.0000000000000000e+00  1.0000001312203282e+00 0.0000000000000000e+00 0.0000000000000000e+00  1.0000001312203282e+00 0.0000000000000000e+00 0.0000000000000000e+00  1.0000001312203282e+00 0.0000000000000000e+00 0.0000000000000000e+00  1.0000001312203282e+00 0.0000000000000000e+00 0.0000000000000000e+00  1.0000001312203282e+00 0.0000000000000000e+00 0.0000000000000000e+00  1.0394225768104677e+00 -8.8782084989687902e-03 0.0000000000000000e+00  1.0366726567305684e+00 -1.7986387725889712e-02 0.0000000000000000e+00  1.0348726839442104e+00 -2.8033925046967525e-02 0.0000000000000000e+00  1.0298505977380084e+00 -3.8526068245380463e-02 0.0000000000000000e+00  1.0250291956944244e+00 -5.2804106067840514e-02 0.0000000000000000e+00  1.0295343493320870e+00 -5.5719773343008532e-02 0.0000000000000000e+00  1.0335571169589142e+00 -5.8665767087909312e-02 0.0000000000000000e+00  1.0385881947909696e+00 -6.1223693114411858e-02 0.0000000000000000e+00  1.0437980486058229e+00 -6.3578764510928296e-02 0.0000000000000000e+00  1.0495664846384511e+00 -6.5424476291231257e-02 0.0000000000000000e+00  1.0558254508400675e+00 -6.6864508181714494e-02 0.0000000000000000e+00  1.0623738039144510e+00 -6.7573106803122965e-02 0.0000000000000000e+00  1.0693227222308901e+00 -6.7661409776453102e-02 0.0000000000000000e+00  1.0761655260352199e+00 -6.6807234477825758e-02 0.0000000000000000e+00  1.0831439407649777e+00 -6.5304219312895539e-02 0.0000000000000000e+00  1.0898588496490706e+00 -6.3075827021269432e-02 0.0000000000000000e+00  1.0964266797242830e+00 -5.9779529409304422e-02 0.0000000000000000e+00  1.1022961965069609e+00 -5.5617886016190055e-02 0.0000000000000000e+00  1.1075102130443790e+00 -5.0974747406509251e-02 0.0000000000000000e+00  1.1119329382457268e+00 -4.5751060747309030e-02 0.0000000000000000e+00  1.1153745596107967e+00 -4.0155724009294604e-02 0.0000000000000000e+00  1.1177724099284776e+00 -3.4350631834250508e-02 0.0000000000000000e+00  1.1192498799999213e+00 -2.8688143621305229e-02 0.0000000000000000e+00  1.1197175846999643e+00 -2.3047315824199090e-02 0.0000000000000000e+00  1.1193113105217620e+00 -1.8159880797929240e-02 0.0000000000000000e+00  1.1181202026095840e+00 -1.3499945253804848e-02 0.0000000000000000e+00  1.1162667335446617e+00 -9.6254364852964673e-03 0.0000000000000000e+00  1.1141325525182988e+00 -6.7582672553425979e-03 0.0000000000000000e+00  1.1117588009018460e+00 -4.8238655097103426e-03 0.0000000000000000e+00  1.1094223943138986e+00 -3.8036655173469590e-03 0.0000000000000000e+00  1.1073676904693490e+00 -3.5260810055469530e-03 0.0000000000000000e+00  1.1058877649374474e+00 -4.0716455125270378e-03 0.0000000000000000e+00  1.1049771171675749e+00 -5.1450407565443584e-03 0.0000000000000000e+00  1.1050158107172310e+00 -6.5093599313626755e-03 0.0000000000000000e+00  1.1060064366744857e+00 -8.0200688406617468e-03 0.0000000000000000e+00  1.1079156554554623e+00 -9.247454072327