<?xml version="1.0"?>
<VTKFile type="UnstructuredGrid"  version="0.1"  >
<UnstructuredGrid>
<Piece  NumberOfPoints="10199" NumberOfCells="20110">
<Points>
<DataArray  type="Float64"  NumberOfComponents="3"  format="ascii">0 -5 0  8 -5 0  30 -5 0  40 -5 0  40 5 0  30 5 0  8 5 0  0 5 0  8 -2.5 0  15 -2.5 0  30 -2.5 0  30 2.5 0  15 2.5 0  8 2.5 0  10 0.5 0  10 -0.5 0  0 0 0  0.4210526315780956 -5 0  0.8421052631563433 -5 0  1.263157894734281 -5 0  1.684210526311999 -5 0  2.105263157889717 -5 0  2.526315789467435 -5 0  2.947368421045153 -5 0  3.368421052622872 -5 0  3.78947368420059 -5 0  4.210526315779479 -5 0  4.631578947359537 -5 0  5.052631578939595 -5 0  5.473684210519653 -5 0  5.89473684209971 -5 0  6.315789473679768 -5 0  6.736842105259826 -5 0  7.157894736839884 -5 0  7.578947368419942 -5 0  8.407407407405314 -5 0  8.814814814810628 -5 0  9.222222222215942 -5 0  9.629629629621256 -5 0  10.03703703702657 -5 0  10.44444444443188 -5 0  10.8518518518372 -5 0  11.25925925924251 -5 0  11.66666666664783 -5 0  12.07407407405314 -5 0  12.48148148145846 -5 0  12.88888888886377 -5 0  13.29629629626908 -5 0  13.7037037036744 -5 0  14.11111111107971 -5 0  14.51851851848502 -5 0  14.92592592589034 -5 0  15.33333333329565 -5 0  15.74074074070096 -5 0  16.14814814810754 -5 0  16.55555555551614 -5 0  16.96296296292474 -5 0  17.37037037033335 -5 0  17.77777777774195 -5 0  18.18518518515056 -5 0  18.59259259255916 -5 0  18.99999999996776 -5 0  19.40740740737636 -5 0  19.81481481478497 -5 0  20.22222222219357 -5 0  20.62962962960217 -5 0  21.03703703701077 -5 0  21.44444444441937 -5 0  21.85185185182797 -5 0  22.25925925923657 -5 0  22.66666666664518 -5 0  23.07407407405378 -5 0  23.48148148146238 -5 0  23.88888888887098 -5 0  24.29629629627958 -5 0  24.70370370368818 -5 0  25.11111111109678 -5 0  25.51851851850539 -5 0  25.92592592591399 -5 0  26.33333333332259 -5 0  26.74074074073119 -5 0  27.14814814813979 -5 0  27.55555555554839 -5 0  27.96296296295699 -5 0  28.3703703703656 -5 0  28.7777777777742 -5 0  29.1851851851828 -5 0  29.5925925925914 -5 0  30.41666666667852 -5 0  30.83333333335704 -5 0  31.25000000003556 -5 0  31.66666666671408 -5 0  32.08333333338936 -5 0  32.50000000005308 -5 0  32.9166666667168 -5 0  33.33333333338052 -5 0  33.75000000004424 -5 0  34.16666666670795 -5 0  34.58333333337167 -5 0  35.00000000003539 -5 0  35.41666666669911 -5 0  35.83333333336282 -5 0  36.25000000002654 -5 0  36.66666666669026 -5 0  37.08333333335398 -5 0  37.50000000001769 -5 0  37.91666666668141 -5 0  38.33333333334513 -5 0  38.75000000000885 -5 0  39.16666666667257 -5 0  39.58333333333628 -5 0  40 -4.583333333332821 0  40 -4.166666666665642 0  40 -3.74999999999855 0  40 -3.333333333333135 0  40 -2.916666666667806 0  40 -2.500000000002478 0  40 -2.083333333337148 0  40 -1.666666666671818 0  40 -1.250000000006488 0  40 -0.8333333333405228 0  40 -0.4166666666733416 0  40 -6.163070054299169e-12 0  40 0.4166666666610173 0  40 0.8333333333281976 0  40 1.249999999995378 0  40 1.666666666662558 0  40 2.083333333329739 0  40 2.499999999996919 0  40 2.916666666664099 0  40 3.33333333333128 0  40 3.74999999999846 0  40 4.166666666665641 0  40 4.583333333332821 0  39.58333333333628 5 0  39.16666666667256 5 0  38.75000000000885 5 0  38.33333333334513 5 0  37.91666666668141 5 0  37.50000000001769 5 0  37.08333333335398 5 0  36.66666666669025 5 0  36.25000000002654 5 0  35.83333333336282 5 0  35.41666666669911 5 0  35.00000000003539 5 0  34.58333333337167 5 0  34.16666666670795 5 0  33.75000000004424 5 0  33.33333333338052 5 0  32.9166666667168 5 0  32.50000000005308 5 0  32.08333333338936 5 0  31.66666666671408 5 0  31.25000000003556 5 0  30.83333333335704 5 0  30.41666666667852 5 0  29.59259259259259 5 0  29.18518518518519 5 0  28.77777777777778 5 0  28.37037037037037 5 0  27.96296296296296 5 0  27.55555555555556 5 0  27.14814814814815 5 0  26.74074074074074 5 0  26.33333333333333 5 0  25.92592592592593 5 0  25.51851851851852 5 0  25.11111111111111 5 0  24.7037037037037 5 0  24.2962962962963 5 0  23.88888888888889 5 0  23.48148148148148 5 0  23.07407407407408 5 0  22.66666666666667 5 0  22.25925925925926 5 0  21.85185185185185 5 0  21.44444444444445 5 0  21.03703703703704 5 0  20.62962962962963 5 0  20.22222222222222 5 0  19.81481481481482 5 0  19.40740740740741 5 0  19 5 0  18.5925925925926 5 0  18.18518518518519 5 0  17.77777777777778 5 0  17.37037037037037 5 0  16.96296296296296 5 0  16.55555555555556 5 0  16.14814814814815 5 0  15.74074074074074 5 0  15.33333333333333 5 0  14.92592592592593 5 0  14.51851851851852 5 0  14.11111111111111 5 0  13.70370370370371 5 0  13.2962962962963 5 0  12.88888888888889 5 0  12.48148148148148 5 0  12.07407407407408 5 0  11.66666666666667 5 0  11.25925925925926 5 0  10.85185185185185 5 0  10.44444444444445 5 0  10.03703703703704 5 0  9.629629629629633 5 0  9.222222222222221 5 0  8.814814814814817 5 0  8.407407407407408 5 0  7.5789473684193 5 0  7.157894736838599 5 0  6.73684210526082 5 0  6.315789473684795 5 0  5.894736842108769 5 0  5.473684210532742 5 0  5.052631578956715 5 0  4.631578947380689 5 0  4.210526315804662 5 0  3.789473684226299 5 0  3.368421052645599 5 0  2.947368421064898 5 0  2.526315789484198 5 0  2.105263157903499 5 0  1.6842105263228 5 0  1.2631578947421 5 0  0.8421052631613994 5 0  0.4210526315806993 5 0  0 4.545454545454545 0  0 4.09090909090909 0  0 3.636363636363634 0  0 3.18181818181818 0  0 2.727272727272726 0  0 2.272727272727271 0  0 1.818181818181817 0  0 1.363636363636363 0  0 0.9090909090909092 0  0 0.454545454545455 0  0 -0.4545454545450807 0  0 -0.9090909090895867 0  0 -1.363636363633713 0  0 -1.818181818177841 0  0 -2.272727272723127 0  0 -2.727272727269273 0  0 -3.181818181815419 0  0 -3.636363636361564 0  0 -4.090909090907709 0  0 -4.545454545453855 0  8 -4.499999999999999 0  8 -3.999999999999999 0  8 -3.499999999999999 0  8 -3 0  8.137254901963859 -2.5 0  8.274509803926303 -2.5 0  8.411764705886863 -2.5 0  8.549019607849138 -2.5 0  8.686274509809513 -2.5 0  8.82352941176989 -2.5 0  8.960784313730265 -2.5 0  9.098039215690642 -2.5 0  9.235294117651017 -2.5 0  9.372549019611395 -2.5 0  9.50980392157177 -2.5 0  9.647058823532147 -2.5 0  9.784313725492522 -2.5 0  9.921568627452897 -2.5 0  10.05882352941327 -2.5 0  10.19607843137365 -2.5 0  10.33333333333402 -2.5 0  10.4705882352944 -2.5 0  10.60784313725478 -2.5 0  10.74509803921515 -2.5 0  10.88235294117553 -2.5 0  11.0196078431359 -2.5 0  11.15686274509628 -2.5 0  11.29411764705665 -2.5 0  11.43137254901703 -2.5 0  11.56862745097915 -2.5 0  11.70588235294301 -2.5 0  11.84313725490686 -2.5 0  11.98039215687072 -2.5 0  12.11764705883209 -2.5 0  12.25490196079247 -2.5 0  12.39215686275285 -2.5 0  12.52941176471322 -2.5 0  12.6666666666736 -2.5 0  12.80392156863397 -2.5 0  12.94117647059435 -2.5 0  13.07843137255473 -2.5 0  13.2156862745151 -2.5 0  13.35294117647548 -2.5 0  13.49019607843586 -2.5 0  13.62745098039623 -2.5 0  13.76470588235661 -2.5 0  13.90196078431699 -2.5 0  14.03921568627736 -2.5 0  14.17647058823774 -2.5 0  14.31372549019812 -2.5 0  14.45098039215849 -2.5 0  14.58823529411887 -2.5 0  14.72549019607925 -2.5 0  14.86274509803962 -2.5 0  15.20270270270254 -2.5 0  15.40540540540509 -2.5 0  15.60810810810763 -2.5 0  15.81081081081017 -2.5 0  16.01351351351227 -2.5 0  16.21621621621265 -2.5 0  16.41891891891279 -2.5 0  16.62162162161294 -2.5 0  16.82432432431308 -2.5 0  17.02702702701322 -2.5 0  17.22972972971337 -2.5 0  17.43243243241351 -2.5 0  17.63513513511365 -2.5 0  17.83783783781379 -2.5 0  18.04054054051394 -2.5 0  18.24324324321408 -2.5 0  18.44594594591422 -2.5 0  18.64864864861436 -2.5 0  18.85135135131451 -2.5 0  19.05405405401465 -2.5 0  19.25675675671479 -2.5 0  19.45945945941494 -2.5 0  19.66216216211508 -2.5 0  19.86486486481522 -2.5 0  20.06756756751536 -2.5 0  20.27027027021551 -2.5 0  20.47297297291565 -2.5 0  20.6756756756158 -2.5 0  20.87837837831594 -2.5 0  21.08108108101608 -2.5 0  21.28378378371622 -2.5 0  21.48648648641637 -2.5 0  21.68918918911651 -2.5 0  21.89189189181666 -2.5 0  22.0945945945168 -2.5 0  22.29729729721694 -2.5 0  22.49999999991778 -2.5 0  22.70270270262203 -2.5 0  22.90540540532697 -2.5 0  23.10810810803191 -2.5 0  23.31081081073686 -2.5 0  23.5135135134418 -2.5 0  23.71621621614674 -2.5 0  23.91891891885169 -2.5 0  24.12162162155663 -2.5 0  24.32432432426158 -2.5 0  24.52702702696652 -2.5 0  24.72972972967146 -2.5 0  24.93243243237641 -2.5 0  25.13513513508135 -2.5 0  25.3378378377863 -2.5 0  25.54054054049124 -2.5 0  25.74324324319618 -2.5 0  25.94594594590112 -2.5 0  26.14864864860607 -2.5 0  26.35135135131101 -2.5 0  26.55405405401596 -2.5 0  26.7567567567209 -2.5 0  26.95945945942584 -2.5 0  27.16216216213079 -2.5 0  27.36486486483573 -2.5 0  27.56756756754068 -2.5 0  27.77027027024562 -2.5 0  27.97297297295056 -2.5 0  28.1756756756555 -2.5 0  28.37837837836045 -2.5 0  28.5810810810654 -2.5 0  28.78378378377034 -2.5 0  28.98648648647528 -2.5 0  29.18918918918023 -2.5 0  29.39189189188517 -2.5 0  29.59459459459011 -2.5 0  29.79729729729506 -2.5 0  30 -3.000000000000001 0  30 -3.500000000000001 0  30 -4.000000000000001 0  30 -4.5 0  8 4.499999999999999 0  8 3.999999999999999 0  8 3.499999999999999 0  8 3 0  8.137254901963859 2.5 0  8.274509803926303 2.5 0  8.411764705886863 2.5 0  8.549019607849138 2.5 0  8.686274509809513 2.5 0  8.82352941176989 2.5 0  8.960784313730265 2.5 0  9.098039215690642 2.5 0  9.235294117651017 2.5 0  9.372549019611395 2.5 0  9.50980392157177 2.5 0  9.647058823532147 2.5 0  9.784313725492522 2.5 0  9.921568627452897 2.5 0  10.05882352941327 2.5 0  10.19607843137365 2.5 0  10.33333333333402 2.5 0  10.4705882352944 2.5 0  10.60784313725478 2.5 0  10.74509803921515 2.5 0  10.88235294117553 2.5 0  11.0196078431359 2.5 0  11.15686274509628 2.5 0  11.29411764705665 2.5 0  11.43137254901703 2.5 0  11.56862745097915 2.5 0  11.70588235294301 2.5 0  11.84313725490686 2.5 0  11.98039215687072 2.5 0  12.11764705883209 2.5 0  12.25490196079247 2.5 0  1
[...]
<PointData  Vectors="f_17"> 
<DataArray  type="Float64"  Name="f_17"  NumberOfComponents="3" format="ascii">1.0000001326238817e+00 0.0000000000000000e+00 0.0000000000000000e+00  1.0422296785225256e+00 0.0000000000000000e+00 0.0000000000000000e+00  1.0609573337181153e+00 0.0000000000000000e+00 0.0000000000000000e+00  1.0898078833052478e+00 0.0000000000000000e+00 0.0000000000000000e+00  1.0772802239800627e+00 0.0000000000000000e+00 0.0000000000000000e+00  1.0531318598576178e+00 0.0000000000000000e+00 0.0000000000000000e+00  1.0387068490935949e+00 0.0000000000000000e+00 0.0000000000000000e+00  1.0000001326238817e+00 0.0000000000000000e+00 0.0000000000000000e+00  1.0256801073178381e+00 -5.1447086254061310e-02 0.0000000000000000e+00  1.1351480374518783e+00 3.9446450677520679e-02 0.0000000000000000e+00  1.1321701445559471e+00 -7.2979019215178645e-02 0.0000000000000000e+00  1.0117927514440186e+00 -6.3505161287768994e-02 0.0000000000000000e+00  9.8563695561569398e-01 -1.8297877868782057e-02 0.0000000000000000e+00  1.0171329534954654e+00 5.0244013168730069e-02 0.0000000000000000e+00  0.0000000000000000e+00 0.0000000000000000e+00 0.0000000000000000e+00  0.0000000000000000e+00 0.0000000000000000e+00 0.0000000000000000e+00  1.0000001326238817e+00 0.0000000000000000e+00 0.0000000000000000e+00  9.9930968231036033e-01 0.0000000000000000e+00 0.0000000000000000e+00  9.9881500908226573e-01 0.0000000000000000e+00 0.0000000000000000e+00  1.0009414339686384e+00 0.0000000000000000e+00 0.0000000000000000e+00  1.0008777493668684e+00 0.0000000000000000e+00 0.0000000000000000e+00  1.0019939364761512e+00 0.0000000000000000e+00 0.0000000000000000e+00  1.0024651117976779e+00 0.0000000000000000e+00 0.0000000000000000e+00  1.0029033432978718e+00 0.0000000000000000e+00 0.0000000000000000e+00  1.0038411235362199e+00 0.0000000000000000e+00 0.0000000000000000e+00  1.0051616769004579e+00 0.0000000000000000e+00 0.0000000000000000e+00  1.0063336562958087e+00 0.0000000000000000e+00 0.0000000000000000e+00  1.0078452955493171e+00 0.0000000000000000e+00 0.0000000000000000e+00  1.0100691280435425e+00 0.0000000000000000e+00 0.0000000000000000e+00  1.0124125926091860e+00 0.0000000000000000e+00 0.0000000000000000e+00  1.0163362610116882e+00 0.0000000000000000e+00 0.0000000000000000e+00  1.0180405712016973e+00 0.0000000000000000e+00 0.0000000000000000e+00  1.0225602604477166e+00 0.0000000000000000e+00 0.0000000000000000e+00  1.0292299607153386e+00 0.0000000000000000e+00 0.0000000000000000e+00  1.0345297894278978e+00 0.0000000000000000e+00 0.0000000000000000e+00  1.0498336035383504e+00 0.0000000000000000e+00 0.0000000000000000e+00  1.0576749799357898e+00 0.0000000000000000e+00 0.0000000000000000e+00  1.0646743061095778e+00 0.0000000000000000e+00 0.0000000000000000e+00  1.0717870702730943e+00 0.0000000000000000e+00 0.0000000000000000e+00  1.0771036670002712e+00 0.0000000000000000e+00 0.0000000000000000e+00  1.0813840497506555e+00 0.0000000000000000e+00 0.0000000000000000e+00  1.0850516856799484e+00 0.0000000000000000e+00 0.0000000000000000e+00  1.0861800293023185e+00 0.0000000000000000e+00 0.0000000000000000e+00  1.0867156543781655e+00 0.0000000000000000e+00 0.0000000000000000e+00  1.0862623063137831e+00 0.0000000000000000e+00 0.0000000000000000e+00  1.0858446369088417e+00 0.0000000000000000e+00 0.0000000000000000e+00  1.0843692875575299e+00 0.0000000000000000e+00 0.0000000000000000e+00  1.0838960948370930e+00 0.0000000000000000e+00 0.0000000000000000e+00  1.0830868769409177e+00 0.0000000000000000e+00 0.0000000000000000e+00  1.0814773547621201e+00 0.0000000000000000e+00 0.0000000000000000e+00  1.0792171869793137e+00 0.0000000000000000e+00 0.0000000000000000e+00  1.0754891725694506e+00 0.0000000000000000e+00 0.0000000000000000e+00  1.0703915921939491e+00 0.0000000000000000e+00 0.0000000000000000e+00  1.0637495171957181e+00 0.0000000000000000e+00 0.0000000000000000e+00  1.0562698901437881e+00 0.0000000000000000e+00 0.0000000000000000e+00  1.0500432873450911e+00 0.0000000000000000e+00 0.0000000000000000e+00  1.0453869953447084e+00 0.0000000000000000e+00 0.0000000000000000e+00  1.0413402378578636e+00 0.0000000000000000e+00 0.0000000000000000e+00  1.0405940113182146e+00 0.0000000000000000e+00 0.0000000000000000e+00  1.0421526557554273e+00 0.0000000000000000e+00 0.0000000000000000e+00  1.0457272632698529e+00 0.0000000000000000e+00 0.0000000000000000e+00  1.0510665806331323e+00 0.0000000000000000e+00 0.0000000000000000e+00  1.0561315673023135e+00 0.0000000000000000e+00 0.0000000000000000e+00  1.0602207167497730e+00 0.0000000000000000e+00 0.0000000000000000e+00  1.0627936361984800e+00 0.0000000000000000e+00 0.0000000000000000e+00  1.0620463705742982e+00 0.0000000000000000e+00 0.0000000000000000e+00  1.0589573607636513e+00 0.0000000000000000e+00 0.0000000000000000e+00  1.0556238695887288e+00 0.0000000000000000e+00 0.0000000000000000e+00  1.0506457080323799e+00 0.0000000000000000e+00 0.0000000000000000e+00  1.0459493721928474e+00 0.0000000000000000e+00 0.0000000000000000e+00  1.0436760528036082e+00 0.0000000000000000e+00 0.0000000000000000e+00  1.0425476458217062e+00 0.0000000000000000e+00 0.0000000000000000e+00  1.0434787682768660e+00 0.0000000000000000e+00 0.0000000000000000e+00  1.0479174560659359e+00 0.0000000000000000e+00 0.0000000000000000e+00  1.0525615993875035e+00 0.0000000000000000e+00 0.0000000000000000e+00  1.0572993151824355e+00 0.0000000000000000e+00 0.0000000000000000e+00  1.0619962307589850e+00 0.0000000000000000e+00 0.0000000000000000e+00  1.0642170073007906e+00 0.0000000000000000e+00 0.0000000000000000e+00  1.0641770112915618e+00 0.0000000000000000e+00 0.0000000000000000e+00  1.0626395535867119e+00 0.0000000000000000e+00 0.0000000000000000e+00  1.0587288890433679e+00 0.0000000000000000e+00 0.0000000000000000e+00  1.0540119779758432e+00 0.0000000000000000e+00 0.0000000000000000e+00  1.0522271156266514e+00 0.0000000000000000e+00 0.0000000000000000e+00  1.0498018451907283e+00 0.0000000000000000e+00 0.0000000000000000e+00  1.0475641857375200e+00 0.0000000000000000e+00 0.0000000000000000e+00  1.0484615700798663e+00 0.0000000000000000e+00 0.0000000000000000e+00  1.0524666044453168e+00 0.0000000000000000e+00 0.0000000000000000e+00  1.0566077835640022e+00 0.0000000000000000e+00 0.0000000000000000e+00  1.0641871673865455e+00 0.0000000000000000e+00 0.0000000000000000e+00  1.0648425560583770e+00 0.0000000000000000e+00 0.0000000000000000e+00  1.0634369835311992e+00 0.0000000000000000e+00 0.0000000000000000e+00  1.0612793686589410e+00 0.0000000000000000e+00 0.0000000000000000e+00  1.0578448084301768e+00 0.0000000000000000e+00 0.0000000000000000e+00  1.0540788031666464e+00 0.0000000000000000e+00 0.0000000000000000e+00  1.0511979575409436e+00 0.0000000000000000e+00 0.0000000000000000e+00  1.0504314948859590e+00 0.0000000000000000e+00 0.0000000000000000e+00  1.0516250910439902e+00 0.0000000000000000e+00 0.0000000000000000e+00  1.0542034345530173e+00 0.0000000000000000e+00 0.0000000000000000e+00  1.0584875270051384e+00 0.0000000000000000e+00 0.0000000000000000e+00  1.0628152597357028e+00 0.0000000000000000e+00 0.0000000000000000e+00  1.0661495165205099e+00 0.0000000000000000e+00 0.0000000000000000e+00  1.0685918450875365e+00 0.0000000000000000e+00 0.0000000000000000e+00  1.0691632361834935e+00 0.0000000000000000e+00 0.0000000000000000e+00  1.0686812174226501e+00 0.0000000000000000e+00 0.0000000000000000e+00  1.0663020050640548e+00 0.0000000000000000e+00 0.0000000000000000e+00  1.0643980154592392e+00 0.0000000000000000e+00 0.0000000000000000e+00  1.0631474377759775e+00 0.0000000000000000e+00 0.0000000000000000e+00  1.0643229286577753e+00 0.0000000000000000e+00 0.0000000000000000e+00  1.0673333129785678e+00 0.0000000000000000e+00 0.0000000000000000e+00  1.0735997501620691e+00 0.0000000000000000e+00 0.0000000000000000e+00  1.0808744983401501e+00 0.0000000000000000e+00 0.0000000000000000e+00  1.0907561511912574e+00 -8.9369571224399286e-03 0.0000000000000000e+00  1.0927601000376090e+00 -1.9737656482007090e-02 0.0000000000000000e+00  1.0960105086985128e+00 -3.4400606763747239e-02 0.0000000000000000e+00  1.0991300432661444e+00 -5.6047815069357666e-02 0.0000000000000000e+00  1.1058115031080580e+00 -9.1737873254618060e-02 0.0000000000000000e+00  1.1103674974619380e+00 -1.4186576346416191e-01 0.0000000000000000e+00  1.0925159346177589e+00 -2.0626662672086934e-01 0.0000000000000000e+00  1.0318670140380335e+00 -2.6329958263014658e-01 0.0000000000000000e+00  9.3035605522186149e-01 -2.9632673657183956e-01 0.0000000000000000e+00  8.2387880270603753e-01 -2.9650807931029977e-01 0.0000000000000000e+00  7.5153728862112512e-01 -2.7935429368787995e-01 0.0000000000000000e+00  7.3363170289621249e-01 -2.5814913937356293e-01 0.0000000000000000e+00  7.6469353123559702e-01 -2.3616964858983766e-01 0.0000000000000000e+00  8.3192384873477698e-01 -2.0870083699688424e-01 0.0000000000000000e+00  9.1111507849638851e-01 -1.7852868065596106e-01 0.0000000000000000e+00  9.8188455409342135e-01 -1.3817255782097698e-01 0.0000000000000000e+00  1.0296018203325037e+00 -9.8425459565696774e-02 0.0000000000000000e+00  1.0566050721472331e+00 -6.1056000888560419e-02 0.0000000000000000e+00  1.0686391496353496e+00 -3.5171218409455182e-02 0.0000000000000000e+00  1.0746416456913630e+00 -1.8863500823445380e-02 0.0000000000000000e+00  1.0769265218728095e+00 -9.7021634241890014e-03 0.0000000000000000e+00  1.0782288495347199e+00 -4.7608904618671637e-03 0.0000000000000000e+00  1.0778966576125490e+00 -1.9387320493380281e-03 0.0000000000000000e+00  1.0788767690534755e+00 0.0000000000000000e+00 0.0000000000000000e+00  1.0801948235448162e+00 0.0000000000000000e+00 0.0000000000000000e+00  1.0802982340063683e+00 0.0000000000000000e+00 0.0000000000000000e+00  1.0788845408430470e+00 0.0000000000000000e+00 0.0000000000000000e+00  1.0750000464754781e+00 0.0000000000000000e+00 0.0000000000000000e+00  1.0702509905433764e+00 0.0000000000000000e+00 0.0000000000000000e+00  1.0651464390476637e+00 0.0000000000000000e+00 0.0000000000000000e+00  1.0606586521411658e+00 0.0000000000000000e+00 0.0000000000000000e+00  1.0569983771717173e+00 0.0000000000000000e+00 0.0000000000000000e+00  1.0555909554341796e+00 0.0000000000000000e+00 0.0000000000000000e+00  1.0562897824609081e+00 0.0000000000000000e+00 0.0000000000000000e+00  1.0584401510470400e+00 0.0000000000000000e+00 0.0000000000000000e+00  1.0615596243493419e+00 0.0000000000000000e+00 0.0000000000000000e+00  1.0651243959614236e+00 0.0000000000000000e+00 0.0000000000000000e+00  1.0668363395497695e+00 0.0000000000000000e+00 0.0000000000000000e+00  1.0677449088289799e+00 0.0000000000000000e+00 0.0000000000000000e+00  1.0654328099048134e+00 0.0000000000000000e+00 0.0000000000000000e+00  1.0620594092437796e+00 0.0000000000000000e+00 0.0000000000000000e+00  1.0576417197844499e+00 0.0000000000000000e+00 0.0000000000000000e+00  1.0538480645081536e+00 0.0000000000000000e+00 0.0000000000000000e+00  1.0509603847171343e+00 0.0000000000000000e+00 0.0000000000000000e+00  1.0493897467351501e+00 0.0000000000000000e+00 0.0000000000000000e+00  1.0504334294997990e+00 0.0000000000000000e+00 0.0000000000000000e+00  1.0560886946448713e+00 0.0000000000000000e+00 0.0000000000000000e+00  1.0601203668860859e+00 0.0000000000000000e+00 0.0000000000000000e+00  1.0621512878221711e+00 0.0000000000000000e+00 0.0000000000000000e+00  1.0640794135061360e+00 0.0000000000000000e+00 0.0000000000000000e+00  1.0647739371664338e+00 0.0000000000000000e+00 0.0000000000000000e+00  1.0622869931527394e+00 0.0000000000000000e+00 0.0000000000000000e+00  1.0565042564524700e+00 0.0000000000000000e+00 0.0000000000000000e+00  1.0526662824992321e+00 0.0000000000000000e+00 0.0000000000000000e+00  1.0492180875520765e+00 0.0000000000000000e+00 0.0000000000000000e+00  1.0463498489112402e+00 0.0000000000000000e+00 0.0000000000000000e+00  1.0460836071933708e+00 0.0000000000000000e+00 0.0000000000000000e+00  1.0478705900364038e+00 0.0000000000000000e+00 0.0000000000000000e+00  1.0506045355972717e+00 0.0000000000000000e+00 0.0000000000000000e+00  1.0549791237857187e+00 0.0000000000000000e+00 0.0000000000000000e+00  1.0591188384130408e+00 0.0000000000000000e+00 0.0000000000000000e+00  1.0612409503356863e+00 0.0000000000000000e+00 0.0000000000000000e+00  1.0625327248083816e+00 0.0000000000000000e+00 0.0000000000000000e+00  1.0613280597360715e+00 0.0000000000000000e+00 0.0000000000000000e+00  1.0570241344857485e+00 0.0000000000000000e+00 0.0000000000000000e+00  1.0522379914608471e+00 0.0000000000000000e+00 0.0000000000000000e+00  1.0468948365709361e+00 0.0000000000000000e+00 0.0000000000000000e+00  1.0412221762043310e+00 0.0000000000000000e+00 0.0000000000000000e+00  1.0388909352013160e+00 0.0000000000000000e+00 0.0000000000000000e+00  1.0387141534833935e+00 0.0000000000000000e+00 0.0000000000000000e+00  1.0402454371653163e+00 0.0000000000000000e+00 0.0000000000000000e+00  1.0442733458926534e+00 0.0000000000000000e+00 0.0000000000000000e+00  1.0496953713362998e+00 0.0000000000000000e+00 0.0000000000000000e+00  1.0550700250187950e+00 0.0000000000000000e+00 0.0000000000000000e+00  1.0601506080711596e+00 0.0000000000000000e+00 0.0000000000000000e+00  1.0636374714911099e+00 0.0000000000000000e+00 0.0000000000000000e+00  1.0647875660199422e+00 0.0000000000000000e+00 0.0000000000000000e+00  1.0645992854533541e+00 0.0000000000000000e+00 0.0000000000000000e+00  1.0617931903410183e+00 0.0000000000000000e+00 0.0000000000000000e+00  1.0587407484945737e+00 0.0000000000000000e+00 0.0000000000000000e+00  1.0570558410403323e+00 0.0000000000000000e+00 0.0000000000000000e+00  1.0566203261766669e+00 0.0000000000000000e+00 0.0000000000000000e+00  1.0576966592338453e+00 0.0000000000000000e+00 0.0000000000000000e+00  1.0605945264842565e+00 0.0000000000000000e+00 0.0000000000000000e+00  1.0657598448542991e+00 0.0000000000000000e+00 0.0000000000000000e+00  1.0730130642142888e+00 0.0000000000000000e+00 0.0000000000000000e+00  1.0800513318502738e+00 0.0000000000000000e+00 0.0000000000000000e+00  1.0864259524450195e+00 0.0000000000000000e+00 0.0000000000000000e+00  1.0930881800896843e+00 0.0000000000000000e+00 0.0000000000000000e+00  1.0962011249722730e+00 0.0000000000000000e+00 0.0000000000000000e+00  1.0980052148461947e+00 0.0000000000000000e+00 0.0000000000000000e+00  1.0970439960143297e+00 0.0000000000000000e+00 0.0000000000000000e+00  1.0932625607096929e+00 0.0000000000000000e+00 0.0000000000000000e+00  1.0876157683203549e+00 0.0000000000000000e+00 0.0000000000000000e+00  1.0807336075734932e+00 0.0000000000000000e+00 0.0000000000000000e+00  1.0728681855185049e+00 0.0000000000000000e+00 0.0000000000000000e+00  1.0636871436300246e+00 0.0000000000000000e+00 0.0000000000000000e+00  1.0554604676006019e+00 0.0000000000000000e+00 0.0000000000000000e+00  1.0468050751395361e+00 0.0000000000000000e+00 0.0000000000000000e+00  1.0310098473531588e+00 0.0000000000000000e+00 0.0000000000000000e+00  1.0244374320579872e+00 0.0000000000000000e+00 0.0000000000000000e+00  1.0192908802150522e+00 0.0000000000000000e+00 0.0000000000000000e+00  1.0147174262046292e+00 0.0000000000000000e+00 0.0000000000000000e+00  1.0109857593788898e+00 0.0000000000000000e+00 0.0000000000000000e+00  1.0080606103165104e+00 0.0000000000000000e+00 0.0000000000000000e+00  1.0058599572347808e+00 0.0000000000000000e+00 0.0000000000000000e+00  1.0037250672589846e+00 0.0000000000000000e+00 0.0000000000000000e+00  1.0023164817579677e+00 0.0000000000000000e+00 0.0000000000000000e+00  1.0013763328068221e+00 0.0000000000000000e+00 0.0000000000000000e+00  1.0003348920976134e+00 0.0000000000000000e+00 0.0000000000000000e+00  1.0003532192148399e+00 0.0000000000000000e+00 0.0000000000000000e+00  9.9950159509868852e-01 0.0000000000000000e+00 0.0000000000000000e+00  9.9967799523981737e-01 0.0000000000000000e+00 0.0000000000000000e+00  9.9947182823960723e-01 0.0000000000000000e+00 0.0000000000000000e+00  1.0003107972192378e+00 0.0000000000000000e+00 0.0000000000000000e+00  1.0001776925536290e+00 0.0000000000000000e+00 0.0000000000000000e+00  9.9978784617800376e-01 0.0000000000000000e+00 0.0000000000000000e+00  1.0000001326238817e+00 0.0000000000000000e+00 0.0000000000000000e+00  1.0000001326238817e+00 0.0000000000000000e+00 0.0000000000000000e+00  1.0000001326238817e+00 0.0000000000000000e+00 0.0000000000000000e+00  1.0000001326238817e+00 0.0000000000000000e+00 0.0000000000000000e+00  1.0000001326238817e+00 0.0000000000000000e+00 0.0000000000000000e+00  1.0000001326238817e+00 0.0000000000000000e+00 0.0000000000000000e+00  1.0000001326238817e+00 0.0000000000000000e+00 0.0000000000000000e+00  1.0000001326238817e+00 0.0000000000000000e+00 0.0000000000000000e+00  1.0000001326238817e+00 0.0000000000000000e+00 0.0000000000000000e+00  1.0000001326238817e+00 0.0000000000000000e+00 0.0000000000000000e+00  1.0000001326238817e+00 0.0000000000000000e+00 0.0000000000000000e+00  1.0000001326238817e+00 0.0000000000000000e+00 0.0000000000000000e+00  1.0000001326238817e+00 0.0000000000000000e+00 0.0000000000000000e+00  1.0000001326238817e+00 0.0000000000000000e+00 0.0000000000000000e+00  1.0000001326238817e+00 0.0000000000000000e+00 0.0000000000000000e+00  1.0000001326238817e+00 0.0000000000000000e+00 0.0000000000000000e+00  1.0000001326238817e+00 0.0000000000000000e+00 0.0000000000000000e+00  1.0000001326238817e+00 0.0000000000000000e+00 0.0000000000000000e+00  1.0000001326238817e+00 0.0000000000000000e+00 0.0000000000000000e+00  1.0000001326238817e+00 0.0000000000000000e+00 0.0000000000000000e+00  1.0417524081142013e+00 -9.0009622532316851e-03 0.0000000000000000e+00  1.0392070893713188e+00 -1.8290544256686133e-02 0.0000000000000000e+00  1.0377005858584625e+00 -2.8647710922268619e-02 0.0000000000000000e+00  1.0330108448827844e+00 -3.9675948554995108e-02 0.0000000000000000e+00  1.0286338974167699e+00 -5.4789917012604765e-02 0.0000000000000000e+00  1.0334050366086247e+00 -5.7703918646219744e-02 0.0000000000000000e+00  1.0377213997440307e+00 -6.0618880775070182e-02 0.0000000000000000e+00  1.0430747190951801e+00 -6.3115147564320684e-02 0.0000000000000000e+00  1.0486360201982927e+00 -6.5365740789284282e-02 0.0000000000000000e+00  1.0547880408151902e+00 -6.7067019381295612e-02 0.0000000000000000e+00  1.0614575250846583e+00 -6.8302624008434384e-02 0.0000000000000000e+00  1.0684643260000481e+00 -6.8741444518153311e-02 0.0000000000000000e+00  1.0758926761893766e+00 -6.8491312885282998e-02 0.0000000000000000e+00  1.0832640431075786e+00 -6.7211663598924401e-02 0.0000000000000000e+00  1.0907988347918793e+00 -6.5172341389432564e-02 0.0000000000000000e+00  1.0981185548695456e+00 -6.2270710830410622e-02 0.0000000000000000e+00  1.1052956411206658e+00 -5.8169127873701688e-02 0.0000000000000000e+00  1.1117801177313491e+00 -5.3039384141239224e-02 0.0000000000000000e+00  1.1176095555547791e+00 -4.7211813938499179e-02 0.0000000000000000e+00  1.1226119588593282e+00 -4.0586380343068447e-02 0.0000000000000000e+00  1.1265263715765632e+00 -3.3296718248201781e-02 0.0000000000000000e+00  1.1293017458272654e+00 -2.5552241676350253e-02 0.0000000000000000e+00  1.1308823112833657e+00 -1.7627201289205953e-02 0.0000000000000000e+00  1.1311966572896486e+00 -9.4276110030980173e-03 0.0000000000000000e+00  1.1302440174735908e+00 -1.7048967564846655e-03 0.0000000000000000e+00  1.1280486895458002e+00 5.9491622052841872e-03 0.0000000000000000e+00  1.1245290537577666e+00 1.3037381512303711e-02 0.0000000000000000e+00  1.1201108208853758e+00 1.9170600988638365e-02 0.0000000000000000e+00  1.1146215727438058e+00 2.4261678858793975e-02 0.0000000000000000e+00  1.1083999439164747e+00 2.8204995100439941e-02 0.0000000000000000e+00  1.1016181322596839e+00 3.0914904405274734e-02 0.0000000000000000e+00  1.0945548366654969e+00 3.2077964578587650e-02 0.0000000000000000e+00  1.0873896354776578e+00 3.1872614589359888e-02 0.0000000000000000e+00  1.0804976716353112e+00 3.0310577038153541e-02 0.0000000000000000e+00  1.0742029362445276e+00 2.7240596715011729e-02 0.0000000000000000e+00  1.0686586413939045e+00 2.29640