<?xml version="1.0"?>
<VTKFile type="UnstructuredGrid"  version="0.1"  >
<UnstructuredGrid>
<Piece  NumberOfPoints="10199" NumberOfCells="20110">
<Points>
<DataArray  type="Float64"  NumberOfComponents="3"  format="ascii">0 -5 0  8 -5 0  30 -5 0  40 -5 0  40 5 0  30 5 0  8 5 0  0 5 0  8 -2.5 0  15 -2.5 0  30 -2.5 0  30 2.5 0  15 2.5 0  8 2.5 0  10 0.5 0  10 -0.5 0  0 0 0  0.4210526315780956 -5 0  0.8421052631563433 -5 0  1.263157894734281 -5 0  1.684210526311999 -5 0  2.105263157889717 -5 0  2.526315789467435 -5 0  2.947368421045153 -5 0  3.368421052622872 -5 0  3.78947368420059 -5 0  4.210526315779479 -5 0  4.631578947359537 -5 0  5.052631578939595 -5 0  5.473684210519653 -5 0  5.89473684209971 -5 0  6.315789473679768 -5 0  6.736842105259826 -5 0  7.157894736839884 -5 0  7.578947368419942 -5 0  8.407407407405314 -5 0  8.814814814810628 -5 0  9.222222222215942 -5 0  9.629629629621256 -5 0  10.03703703702657 -5 0  10.44444444443188 -5 0  10.8518518518372 -5 0  11.25925925924251 -5 0  11.66666666664783 -5 0  12.07407407405314 -5 0  12.48148148145846 -5 0  12.88888888886377 -5 0  13.29629629626908 -5 0  13.7037037036744 -5 0  14.11111111107971 -5 0  14.51851851848502 -5 0  14.92592592589034 -5 0  15.33333333329565 -5 0  15.74074074070096 -5 0  16.14814814810754 -5 0  16.55555555551614 -5 0  16.96296296292474 -5 0  17.37037037033335 -5 0  17.77777777774195 -5 0  18.18518518515056 -5 0  18.59259259255916 -5 0  18.99999999996776 -5 0  19.40740740737636 -5 0  19.81481481478497 -5 0  20.22222222219357 -5 0  20.62962962960217 -5 0  21.03703703701077 -5 0  21.44444444441937 -5 0  21.85185185182797 -5 0  22.25925925923657 -5 0  22.66666666664518 -5 0  23.07407407405378 -5 0  23.48148148146238 -5 0  23.88888888887098 -5 0  24.29629629627958 -5 0  24.70370370368818 -5 0  25.11111111109678 -5 0  25.51851851850539 -5 0  25.92592592591399 -5 0  26.33333333332259 -5 0  26.74074074073119 -5 0  27.14814814813979 -5 0  27.55555555554839 -5 0  27.96296296295699 -5 0  28.3703703703656 -5 0  28.7777777777742 -5 0  29.1851851851828 -5 0  29.5925925925914 -5 0  30.41666666667852 -5 0  30.83333333335704 -5 0  31.25000000003556 -5 0  31.66666666671408 -5 0  32.08333333338936 -5 0  32.50000000005308 -5 0  32.9166666667168 -5 0  33.33333333338052 -5 0  33.75000000004424 -5 0  34.16666666670795 -5 0  34.58333333337167 -5 0  35.00000000003539 -5 0  35.41666666669911 -5 0  35.83333333336282 -5 0  36.25000000002654 -5 0  36.66666666669026 -5 0  37.08333333335398 -5 0  37.50000000001769 -5 0  37.91666666668141 -5 0  38.33333333334513 -5 0  38.75000000000885 -5 0  39.16666666667257 -5 0  39.58333333333628 -5 0  40 -4.583333333332821 0  40 -4.166666666665642 0  40 -3.74999999999855 0  40 -3.333333333333135 0  40 -2.916666666667806 0  40 -2.500000000002478 0  40 -2.083333333337148 0  40 -1.666666666671818 0  40 -1.250000000006488 0  40 -0.8333333333405228 0  40 -0.4166666666733416 0  40 -6.163070054299169e-12 0  40 0.4166666666610173 0  40 0.8333333333281976 0  40 1.249999999995378 0  40 1.666666666662558 0  40 2.083333333329739 0  40 2.499999999996919 0  40 2.916666666664099 0  40 3.33333333333128 0  40 3.74999999999846 0  40 4.166666666665641 0  40 4.583333333332821 0  39.58333333333628 5 0  39.16666666667256 5 0  38.75000000000885 5 0  38.33333333334513 5 0  37.91666666668141 5 0  37.50000000001769 5 0  37.08333333335398 5 0  36.66666666669025 5 0  36.25000000002654 5 0  35.83333333336282 5 0  35.41666666669911 5 0  35.00000000003539 5 0  34.58333333337167 5 0  34.16666666670795 5 0  33.75000000004424 5 0  33.33333333338052 5 0  32.9166666667168 5 0  32.50000000005308 5 0  32.08333333338936 5 0  31.66666666671408 5 0  31.25000000003556 5 0  30.83333333335704 5 0  30.41666666667852 5 0  29.59259259259259 5 0  29.18518518518519 5 0  28.77777777777778 5 0  28.37037037037037 5 0  27.96296296296296 5 0  27.55555555555556 5 0  27.14814814814815 5 0  26.74074074074074 5 0  26.33333333333333 5 0  25.92592592592593 5 0  25.51851851851852 5 0  25.11111111111111 5 0  24.7037037037037 5 0  24.2962962962963 5 0  23.88888888888889 5 0  23.48148148148148 5 0  23.07407407407408 5 0  22.66666666666667 5 0  22.25925925925926 5 0  21.85185185185185 5 0  21.44444444444445 5 0  21.03703703703704 5 0  20.62962962962963 5 0  20.22222222222222 5 0  19.81481481481482 5 0  19.40740740740741 5 0  19 5 0  18.5925925925926 5 0  18.18518518518519 5 0  17.77777777777778 5 0  17.37037037037037 5 0  16.96296296296296 5 0  16.55555555555556 5 0  16.14814814814815 5 0  15.74074074074074 5 0  15.33333333333333 5 0  14.92592592592593 5 0  14.51851851851852 5 0  14.11111111111111 5 0  13.70370370370371 5 0  13.2962962962963 5 0  12.88888888888889 5 0  12.48148148148148 5 0  12.07407407407408 5 0  11.66666666666667 5 0  11.25925925925926 5 0  10.85185185185185 5 0  10.44444444444445 5 0  10.03703703703704 5 0  9.629629629629633 5 0  9.222222222222221 5 0  8.814814814814817 5 0  8.407407407407408 5 0  7.5789473684193 5 0  7.157894736838599 5 0  6.73684210526082 5 0  6.315789473684795 5 0  5.894736842108769 5 0  5.473684210532742 5 0  5.052631578956715 5 0  4.631578947380689 5 0  4.210526315804662 5 0  3.789473684226299 5 0  3.368421052645599 5 0  2.947368421064898 5 0  2.526315789484198 5 0  2.105263157903499 5 0  1.6842105263228 5 0  1.2631578947421 5 0  0.8421052631613994 5 0  0.4210526315806993 5 0  0 4.545454545454545 0  0 4.09090909090909 0  0 3.636363636363634 0  0 3.18181818181818 0  0 2.727272727272726 0  0 2.272727272727271 0  0 1.818181818181817 0  0 1.363636363636363 0  0 0.9090909090909092 0  0 0.454545454545455 0  0 -0.4545454545450807 0  0 -0.9090909090895867 0  0 -1.363636363633713 0  0 -1.818181818177841 0  0 -2.272727272723127 0  0 -2.727272727269273 0  0 -3.181818181815419 0  0 -3.636363636361564 0  0 -4.090909090907709 0  0 -4.545454545453855 0  8 -4.499999999999999 0  8 -3.999999999999999 0  8 -3.499999999999999 0  8 -3 0  8.137254901963859 -2.5 0  8.274509803926303 -2.5 0  8.411764705886863 -2.5 0  8.549019607849138 -2.5 0  8.686274509809513 -2.5 0  8.82352941176989 -2.5 0  8.960784313730265 -2.5 0  9.098039215690642 -2.5 0  9.235294117651017 -2.5 0  9.372549019611395 -2.5 0  9.50980392157177 -2.5 0  9.647058823532147 -2.5 0  9.784313725492522 -2.5 0  9.921568627452897 -2.5 0  10.05882352941327 -2.5 0  10.19607843137365 -2.5 0  10.33333333333402 -2.5 0  10.4705882352944 -2.5 0  10.60784313725478 -2.5 0  10.74509803921515 -2.5 0  10.88235294117553 -2.5 0  11.0196078431359 -2.5 0  11.15686274509628 -2.5 0  11.29411764705665 -2.5 0  11.43137254901703 -2.5 0  11.56862745097915 -2.5 0  11.70588235294301 -2.5 0  11.84313725490686 -2.5 0  11.98039215687072 -2.5 0  12.11764705883209 -2.5 0  12.25490196079247 -2.5 0  12.39215686275285 -2.5 0  12.52941176471322 -2.5 0  12.6666666666736 -2.5 0  12.80392156863397 -2.5 0  12.94117647059435 -2.5 0  13.07843137255473 -2.5 0  13.2156862745151 -2.5 0  13.35294117647548 -2.5 0  13.49019607843586 -2.5 0  13.62745098039623 -2.5 0  13.76470588235661 -2.5 0  13.90196078431699 -2.5 0  14.03921568627736 -2.5 0  14.17647058823774 -2.5 0  14.31372549019812 -2.5 0  14.45098039215849 -2.5 0  14.58823529411887 -2.5 0  14.72549019607925 -2.5 0  14.86274509803962 -2.5 0  15.20270270270254 -2.5 0  15.40540540540509 -2.5 0  15.60810810810763 -2.5 0  15.81081081081017 -2.5 0  16.01351351351227 -2.5 0  16.21621621621265 -2.5 0  16.41891891891279 -2.5 0  16.62162162161294 -2.5 0  16.82432432431308 -2.5 0  17.02702702701322 -2.5 0  17.22972972971337 -2.5 0  17.43243243241351 -2.5 0  17.63513513511365 -2.5 0  17.83783783781379 -2.5 0  18.04054054051394 -2.5 0  18.24324324321408 -2.5 0  18.44594594591422 -2.5 0  18.64864864861436 -2.5 0  18.85135135131451 -2.5 0  19.05405405401465 -2.5 0  19.25675675671479 -2.5 0  19.45945945941494 -2.5 0  19.66216216211508 -2.5 0  19.86486486481522 -2.5 0  20.06756756751536 -2.5 0  20.27027027021551 -2.5 0  20.47297297291565 -2.5 0  20.6756756756158 -2.5 0  20.87837837831594 -2.5 0  21.08108108101608 -2.5 0  21.28378378371622 -2.5 0  21.48648648641637 -2.5 0  21.68918918911651 -2.5 0  21.89189189181666 -2.5 0  22.0945945945168 -2.5 0  22.29729729721694 -2.5 0  22.49999999991778 -2.5 0  22.70270270262203 -2.5 0  22.90540540532697 -2.5 0  23.10810810803191 -2.5 0  23.31081081073686 -2.5 0  23.5135135134418 -2.5 0  23.71621621614674 -2.5 0  23.91891891885169 -2.5 0  24.12162162155663 -2.5 0  24.32432432426158 -2.5 0  24.52702702696652 -2.5 0  24.72972972967146 -2.5 0  24.93243243237641 -2.5 0  25.13513513508135 -2.5 0  25.3378378377863 -2.5 0  25.54054054049124 -2.5 0  25.74324324319618 -2.5 0  25.94594594590112 -2.5 0  26.14864864860607 -2.5 0  26.35135135131101 -2.5 0  26.55405405401596 -2.5 0  26.7567567567209 -2.5 0  26.95945945942584 -2.5 0  27.16216216213079 -2.5 0  27.36486486483573 -2.5 0  27.56756756754068 -2.5 0  27.77027027024562 -2.5 0  27.97297297295056 -2.5 0  28.1756756756555 -2.5 0  28.37837837836045 -2.5 0  28.5810810810654 -2.5 0  28.78378378377034 -2.5 0  28.98648648647528 -2.5 0  29.18918918918023 -2.5 0  29.39189189188517 -2.5 0  29.59459459459011 -2.5 0  29.79729729729506 -2.5 0  30 -3.000000000000001 0  30 -3.500000000000001 0  30 -4.000000000000001 0  30 -4.5 0  8 4.499999999999999 0  8 3.999999999999999 0  8 3.499999999999999 0  8 3 0  8.137254901963859 2.5 0  8.274509803926303 2.5 0  8.411764705886863 2.5 0  8.549019607849138 2.5 0  8.686274509809513 2.5 0  8.82352941176989 2.5 0  8.960784313730265 2.5 0  9.098039215690642 2.5 0  9.235294117651017 2.5 0  9.372549019611395 2.5 0  9.50980392157177 2.5 0  9.647058823532147 2.5 0  9.784313725492522 2.5 0  9.921568627452897 2.5 0  10.05882352941327 2.5 0  10.19607843137365 2.5 0  10.33333333333402 2.5 0  10.4705882352944 2.5 0  10.60784313725478 2.5 0  10.74509803921515 2.5 0  10.88235294117553 2.5 0  11.0196078431359 2.5 0  11.15686274509628 2.5 0  11.29411764705665 2.5 0  11.43137254901703 2.5 0  11.56862745097915 2.5 0  11.70588235294301 2.5 0  11.84313725490686 2.5 0  11.98039215687072 2.5 0  12.11764705883209 2.5 0  12.25490196079247 2.5 0  1
[...]
<PointData  Vectors="f_17"> 
<DataArray  type="Float64"  Name="f_17"  NumberOfComponents="3" format="ascii">1.0000001311077538e+00 0.0000000000000000e+00 0.0000000000000000e+00  1.0396491886344079e+00 0.0000000000000000e+00 0.0000000000000000e+00  1.0733916825001015e+00 0.0000000000000000e+00 0.0000000000000000e+00  1.1163347162363599e+00 0.0000000000000000e+00 0.0000000000000000e+00  1.0991698333547741e+00 0.0000000000000000e+00 0.0000000000000000e+00  1.0585168572811789e+00 0.0000000000000000e+00 0.0000000000000000e+00  1.0415092697703139e+00 0.0000000000000000e+00 0.0000000000000000e+00  1.0000001311077538e+00 0.0000000000000000e+00 0.0000000000000000e+00  1.0211199422322992e+00 -4.9433496526768150e-02 0.0000000000000000e+00  1.0487092184387032e+00 9.0033419474370519e-02 0.0000000000000000e+00  1.1315049744018169e+00 4.3971513175392815e-02 0.0000000000000000e+00  1.0091987331808507e+00 4.6085464808767462e-02 0.0000000000000000e+00  1.0667411196033052e+00 6.2267544280985514e-02 0.0000000000000000e+00  1.0217051919566298e+00 5.2499419013908616e-02 0.0000000000000000e+00  0.0000000000000000e+00 0.0000000000000000e+00 0.0000000000000000e+00  0.0000000000000000e+00 0.0000000000000000e+00 0.0000000000000000e+00  1.0000001311077538e+00 0.0000000000000000e+00 0.0000000000000000e+00  9.9930418856081282e-01 0.0000000000000000e+00 0.0000000000000000e+00  9.9878928215313845e-01 0.0000000000000000e+00 0.0000000000000000e+00  1.0008857441136745e+00 0.0000000000000000e+00 0.0000000000000000e+00  1.0007182150518474e+00 0.0000000000000000e+00 0.0000000000000000e+00  1.0016770070673768e+00 0.0000000000000000e+00 0.0000000000000000e+00  1.0019425378997924e+00 0.0000000000000000e+00 0.0000000000000000e+00  1.0021358562525251e+00 0.0000000000000000e+00 0.0000000000000000e+00  1.0028226378074148e+00 0.0000000000000000e+00 0.0000000000000000e+00  1.0038935725036759e+00 0.0000000000000000e+00 0.0000000000000000e+00  1.0048540778816850e+00 0.0000000000000000e+00 0.0000000000000000e+00  1.0061751394266067e+00 0.0000000000000000e+00 0.0000000000000000e+00  1.0082583381194496e+00 0.0000000000000000e+00 0.0000000000000000e+00  1.0104739065440054e+00 0.0000000000000000e+00 0.0000000000000000e+00  1.0142830968127454e+00 0.0000000000000000e+00 0.0000000000000000e+00  1.0158639786368755e+00 0.0000000000000000e+00 0.0000000000000000e+00  1.0202574079420752e+00 0.0000000000000000e+00 0.0000000000000000e+00  1.0268081778305043e+00 0.0000000000000000e+00 0.0000000000000000e+00  1.0320024051024119e+00 0.0000000000000000e+00 0.0000000000000000e+00  1.0473257707885948e+00 0.0000000000000000e+00 0.0000000000000000e+00  1.0554450926985854e+00 0.0000000000000000e+00 0.0000000000000000e+00  1.0630125419693073e+00 0.0000000000000000e+00 0.0000000000000000e+00  1.0710723015599455e+00 0.0000000000000000e+00 0.0000000000000000e+00  1.0777774078322915e+00 0.0000000000000000e+00 0.0000000000000000e+00  1.0839209200197844e+00 0.0000000000000000e+00 0.0000000000000000e+00  1.0898146236466544e+00 0.0000000000000000e+00 0.0000000000000000e+00  1.0933204757421864e+00 0.0000000000000000e+00 0.0000000000000000e+00  1.0960827906179309e+00 0.0000000000000000e+00 0.0000000000000000e+00  1.0971772350936591e+00 0.0000000000000000e+00 0.0000000000000000e+00  1.0971634581130545e+00 0.0000000000000000e+00 0.0000000000000000e+00  1.0945108007717590e+00 0.0000000000000000e+00 0.0000000000000000e+00  1.0912109482814272e+00 0.0000000000000000e+00 0.0000000000000000e+00  1.0860506835313855e+00 0.0000000000000000e+00 0.0000000000000000e+00  1.0793919174755551e+00 0.0000000000000000e+00 0.0000000000000000e+00  1.0722353487623844e+00 0.0000000000000000e+00 0.0000000000000000e+00  1.0647541701405416e+00 0.0000000000000000e+00 0.0000000000000000e+00  1.0579951532048475e+00 0.0000000000000000e+00 0.0000000000000000e+00  1.0522604327457652e+00 0.0000000000000000e+00 0.0000000000000000e+00  1.0483163682600769e+00 0.0000000000000000e+00 0.0000000000000000e+00  1.0477785068897214e+00 0.0000000000000000e+00 0.0000000000000000e+00  1.0499251562526632e+00 0.0000000000000000e+00 0.0000000000000000e+00  1.0526559279379197e+00 0.0000000000000000e+00 0.0000000000000000e+00  1.0571076752206454e+00 0.0000000000000000e+00 0.0000000000000000e+00  1.0612451510722913e+00 0.0000000000000000e+00 0.0000000000000000e+00  1.0639529886807297e+00 0.0000000000000000e+00 0.0000000000000000e+00  1.0650641446499409e+00 0.0000000000000000e+00 0.0000000000000000e+00  1.0633244074671788e+00 0.0000000000000000e+00 0.0000000000000000e+00  1.0596532795956586e+00 0.0000000000000000e+00 0.0000000000000000e+00  1.0550262992394479e+00 0.0000000000000000e+00 0.0000000000000000e+00  1.0494584535756646e+00 0.0000000000000000e+00 0.0000000000000000e+00  1.0446471669544097e+00 0.0000000000000000e+00 0.0000000000000000e+00  1.0431244030559526e+00 0.0000000000000000e+00 0.0000000000000000e+00  1.0428407364831400e+00 0.0000000000000000e+00 0.0000000000000000e+00  1.0447250816108078e+00 0.0000000000000000e+00 0.0000000000000000e+00  1.0496791794423443e+00 0.0000000000000000e+00 0.0000000000000000e+00  1.0548224091750094e+00 0.0000000000000000e+00 0.0000000000000000e+00  1.0598298013454015e+00 0.0000000000000000e+00 0.0000000000000000e+00  1.0652568562057674e+00 0.0000000000000000e+00 0.0000000000000000e+00  1.0677940995667561e+00 0.0000000000000000e+00 0.0000000000000000e+00  1.0677531799486579e+00 0.0000000000000000e+00 0.0000000000000000e+00  1.0662825009487045e+00 0.0000000000000000e+00 0.0000000000000000e+00  1.0626262073965047e+00 0.0000000000000000e+00 0.0000000000000000e+00  1.0584952783785588e+00 0.0000000000000000e+00 0.0000000000000000e+00  1.0555995171079495e+00 0.0000000000000000e+00 0.0000000000000000e+00  1.0532542682393637e+00 0.0000000000000000e+00 0.0000000000000000e+00  1.0526372595055522e+00 0.0000000000000000e+00 0.0000000000000000e+00  1.0565736816965583e+00 0.0000000000000000e+00 0.0000000000000000e+00  1.0600495240520946e+00 0.0000000000000000e+00 0.0000000000000000e+00  1.0628497117025300e+00 0.0000000000000000e+00 0.0000000000000000e+00  1.0667115548249291e+00 0.0000000000000000e+00 0.0000000000000000e+00  1.0711392435946936e+00 0.0000000000000000e+00 0.0000000000000000e+00  1.0730549119438186e+00 0.0000000000000000e+00 0.0000000000000000e+00  1.0715561155884050e+00 0.0000000000000000e+00 0.0000000000000000e+00  1.0678411705700570e+00 0.0000000000000000e+00 0.0000000000000000e+00  1.0639107011876392e+00 0.0000000000000000e+00 0.0000000000000000e+00  1.0617903235971422e+00 0.0000000000000000e+00 0.0000000000000000e+00  1.0614089971689189e+00 0.0000000000000000e+00 0.0000000000000000e+00  1.0625069974533607e+00 0.0000000000000000e+00 0.0000000000000000e+00  1.0656100951085836e+00 0.0000000000000000e+00 0.0000000000000000e+00  1.0700431566568676e+00 0.0000000000000000e+00 0.0000000000000000e+00  1.0749205483428570e+00 0.0000000000000000e+00 0.0000000000000000e+00  1.0785918351941719e+00 0.0000000000000000e+00 0.0000000000000000e+00  1.0815802601630999e+00 0.0000000000000000e+00 0.0000000000000000e+00  1.0825430007062873e+00 0.0000000000000000e+00 0.0000000000000000e+00  1.0818291183765338e+00 0.0000000000000000e+00 0.0000000000000000e+00  1.0805842115972317e+00 0.0000000000000000e+00 0.0000000000000000e+00  1.0789715704785561e+00 0.0000000000000000e+00 0.0000000000000000e+00  1.0783949482803656e+00 0.0000000000000000e+00 0.0000000000000000e+00  1.0784886155295339e+00 0.0000000000000000e+00 0.0000000000000000e+00  1.0810587264497680e+00 0.0000000000000000e+00 0.0000000000000000e+00  1.0855230496099970e+00 0.0000000000000000e+00 0.0000000000000000e+00  1.0923026206609736e+00 0.0000000000000000e+00 0.0000000000000000e+00  1.0993635601251797e+00 0.0000000000000000e+00 0.0000000000000000e+00  1.1068824840700704e+00 0.0000000000000000e+00 0.0000000000000000e+00  1.1121611842399299e+00 0.0000000000000000e+00 0.0000000000000000e+00  1.1181826800472792e+00 -2.7245523528469078e-03 0.0000000000000000e+00  1.1233404856327744e+00 -5.4271049406657453e-03 0.0000000000000000e+00  1.1336003083092832e+00 -8.0860989681787732e-03 0.0000000000000000e+00  1.1517165361511008e+00 -1.1027777378526884e-02 0.0000000000000000e+00  1.1831588024335828e+00 -1.2775795592430613e-02 0.0000000000000000e+00  1.2089726497495019e+00 -1.4185201032883029e-02 0.0000000000000000e+00  1.1937051716181470e+00 -4.3582834460383175e-03 0.0000000000000000e+00  1.1129661284408092e+00 1.2136620228780651e-02 0.0000000000000000e+00  9.7008797015508064e-01 4.1646752121995416e-02 0.0000000000000000e+00  8.0910013833069605e-01 7.5837235319958618e-02 0.0000000000000000e+00  6.9220551058851298e-01 1.0234270990562501e-01 0.0000000000000000e+00  6.4937489187972219e-01 1.1348371982210578e-01 0.0000000000000000e+00  6.7606837466387759e-01 1.1048666813926422e-01 0.0000000000000000e+00  7.4206692324740653e-01 1.0621327476629704e-01 0.0000000000000000e+00  8.2595938434102900e-01 8.9280806976144905e-02 0.0000000000000000e+00  9.0493076397111816e-01 6.7703631250349311e-02 0.0000000000000000e+00  9.6891585934341751e-01 4.8452131547977381e-02 0.0000000000000000e+00  1.0188314206650666e+00 3.4682609052100750e-02 0.0000000000000000e+00  1.0541416619461790e+00 2.8743712077879440e-02 0.0000000000000000e+00  1.0773630731195480e+00 2.1877732887835403e-02 0.0000000000000000e+00  1.0898876076256006e+00 1.5936159056767166e-02 0.0000000000000000e+00  1.0966003701385356e+00 1.0383029885428312e-02 0.0000000000000000e+00  1.0989661099932746e+00 5.0650794144924084e-03 0.0000000000000000e+00  1.0949628312842512e+00 0.0000000000000000e+00 0.0000000000000000e+00  1.0927313136102144e+00 0.0000000000000000e+00 0.0000000000000000e+00  1.0919476498683134e+00 0.0000000000000000e+00 0.0000000000000000e+00  1.0923921757861197e+00 0.0000000000000000e+00 0.0000000000000000e+00  1.0922104126054240e+00 0.0000000000000000e+00 0.0000000000000000e+00  1.0916699689024330e+00 0.0000000000000000e+00 0.0000000000000000e+00  1.0900587260741419e+00 0.0000000000000000e+00 0.0000000000000000e+00  1.0868888136825285e+00 0.0000000000000000e+00 0.0000000000000000e+00  1.0818379919447336e+00 0.0000000000000000e+00 0.0000000000000000e+00  1.0765759913410786e+00 0.0000000000000000e+00 0.0000000000000000e+00  1.0717986891373148e+00 0.0000000000000000e+00 0.0000000000000000e+00  1.0681710978004935e+00 0.0000000000000000e+00 0.0000000000000000e+00  1.0666619753998041e+00 0.0000000000000000e+00 0.0000000000000000e+00  1.0677914491139637e+00 0.0000000000000000e+00 0.0000000000000000e+00  1.0698324629426184e+00 0.0000000000000000e+00 0.0000000000000000e+00  1.0733916048554266e+00 0.0000000000000000e+00 0.0000000000000000e+00  1.0754317282265788e+00 0.0000000000000000e+00 0.0000000000000000e+00  1.0767916596518494e+00 0.0000000000000000e+00 0.0000000000000000e+00  1.0761065170159889e+00 0.0000000000000000e+00 0.0000000000000000e+00  1.0741680849568762e+00 0.0000000000000000e+00 0.0000000000000000e+00  1.0705883635626801e+00 0.0000000000000000e+00 0.0000000000000000e+00  1.0656743074692505e+00 0.0000000000000000e+00 0.0000000000000000e+00  1.0617009999653095e+00 0.0000000000000000e+00 0.0000000000000000e+00  1.0564221798093663e+00 0.0000000000000000e+00 0.0000000000000000e+00  1.0570461050958173e+00 0.0000000000000000e+00 0.0000000000000000e+00  1.0583487874261497e+00 0.0000000000000000e+00 0.0000000000000000e+00  1.0623650469634247e+00 0.0000000000000000e+00 0.0000000000000000e+00  1.0675409213887326e+00 0.0000000000000000e+00 0.0000000000000000e+00  1.0705254678057854e+00 0.0000000000000000e+00 0.0000000000000000e+00  1.0699689390207678e+00 0.0000000000000000e+00 0.0000000000000000e+00  1.0694787888014718e+00 0.0000000000000000e+00 0.0000000000000000e+00  1.0666620707961618e+00 0.0000000000000000e+00 0.0000000000000000e+00  1.0615243188254717e+00 0.0000000000000000e+00 0.0000000000000000e+00  1.0565294482350645e+00 0.0000000000000000e+00 0.0000000000000000e+00  1.0520340187921609e+00 0.0000000000000000e+00 0.0000000000000000e+00  1.0482816798164385e+00 0.0000000000000000e+00 0.0000000000000000e+00  1.0473810331524411e+00 0.0000000000000000e+00 0.0000000000000000e+00  1.0486512908271077e+00 0.0000000000000000e+00 0.0000000000000000e+00  1.0508693391546093e+00 0.0000000000000000e+00 0.0000000000000000e+00  1.0555393306697245e+00 0.0000000000000000e+00 0.0000000000000000e+00  1.0601974724052396e+00 0.0000000000000000e+00 0.0000000000000000e+00  1.0630436315468177e+00 0.0000000000000000e+00 0.0000000000000000e+00  1.0647771244994282e+00 0.0000000000000000e+00 0.0000000000000000e+00  1.0638972766503734e+00 0.0000000000000000e+00 0.0000000000000000e+00  1.0595460997957429e+00 0.0000000000000000e+00 0.0000000000000000e+00  1.0549504038964961e+00 0.0000000000000000e+00 0.0000000000000000e+00  1.0495802842576714e+00 0.0000000000000000e+00 0.0000000000000000e+00  1.0439048526737063e+00 0.0000000000000000e+00 0.0000000000000000e+00  1.0403655886655758e+00 0.0000000000000000e+00 0.0000000000000000e+00  1.0391187321096922e+00 0.0000000000000000e+00 0.0000000000000000e+00  1.0401321796520866e+00 0.0000000000000000e+00 0.0000000000000000e+00  1.0438333607793484e+00 0.0000000000000000e+00 0.0000000000000000e+00  1.0493214049647808e+00 0.0000000000000000e+00 0.0000000000000000e+00  1.0552781750651672e+00 0.0000000000000000e+00 0.0000000000000000e+00  1.0618389375135038e+00 0.0000000000000000e+00 0.0000000000000000e+00  1.0661345063172054e+00 0.0000000000000000e+00 0.0000000000000000e+00  1.0691338532569203e+00 0.0000000000000000e+00 0.0000000000000000e+00  1.0711800595169290e+00 0.0000000000000000e+00 0.0000000000000000e+00  1.0715665751965844e+00 0.0000000000000000e+00 0.0000000000000000e+00  1.0707076975660230e+00 0.0000000000000000e+00 0.0000000000000000e+00  1.0695243790049069e+00 0.0000000000000000e+00 0.0000000000000000e+00  1.0695899831583009e+00 0.0000000000000000e+00 0.0000000000000000e+00  1.0717410400100325e+00 0.0000000000000000e+00 0.0000000000000000e+00  1.0745060911127995e+00 0.0000000000000000e+00 0.0000000000000000e+00  1.0781306786956697e+00 0.0000000000000000e+00 0.0000000000000000e+00  1.0836161463854108e+00 0.0000000000000000e+00 0.0000000000000000e+00  1.0870420809958639e+00 0.0000000000000000e+00 0.0000000000000000e+00  1.0901936212366756e+00 0.0000000000000000e+00 0.0000000000000000e+00  1.0912354376415099e+00 0.0000000000000000e+00 0.0000000000000000e+00  1.0895955030970237e+00 0.0000000000000000e+00 0.0000000000000000e+00  1.0859662983992349e+00 0.0000000000000000e+00 0.0000000000000000e+00  1.0807769205328455e+00 0.0000000000000000e+00 0.0000000000000000e+00  1.0741501250478251e+00 0.0000000000000000e+00 0.0000000000000000e+00  1.0658033030179415e+00 0.0000000000000000e+00 0.0000000000000000e+00  1.0580450207295264e+00 0.0000000000000000e+00 0.0000000000000000e+00  1.0495892194167735e+00 0.0000000000000000e+00 0.0000000000000000e+00  1.0337104779617825e+00 0.0000000000000000e+00 0.0000000000000000e+00  1.0269876463644281e+00 0.0000000000000000e+00 0.0000000000000000e+00  1.0216862978217778e+00 0.0000000000000000e+00 0.0000000000000000e+00  1.0169647126855910e+00 0.0000000000000000e+00 0.0000000000000000e+00  1.0130987790284802e+00 0.0000000000000000e+00 0.0000000000000000e+00  1.0100496791501274e+00 0.0000000000000000e+00 0.0000000000000000e+00  1.0077087655552033e+00 0.0000000000000000e+00 0.0000000000000000e+00  1.0054209959529337e+00 0.0000000000000000e+00 0.0000000000000000e+00  1.0038085782294397e+00 0.0000000000000000e+00 0.0000000000000000e+00  1.0026490921337994e+00 0.0000000000000000e+00 0.0000000000000000e+00  1.0013605609757874e+00 0.0000000000000000e+00 0.0000000000000000e+00  1.0011238832529232e+00 0.0000000000000000e+00 0.0000000000000000e+00  1.0000221198510542e+00 0.0000000000000000e+00 0.0000000000000000e+00  9.9999508346142474e-01 0.0000000000000000e+00 0.0000000000000000e+00  9.9963895414231541e-01 0.0000000000000000e+00 0.0000000000000000e+00  1.0003646341593815e+00 0.0000000000000000e+00 0.0000000000000000e+00  1.0001872757231902e+00 0.0000000000000000e+00 0.0000000000000000e+00  9.9978813301837755e-01 0.0000000000000000e+00 0.0000000000000000e+00  1.0000001311077538e+00 0.0000000000000000e+00 0.0000000000000000e+00  1.0000001311077538e+00 0.0000000000000000e+00 0.0000000000000000e+00  1.0000001311077538e+00 0.0000000000000000e+00 0.0000000000000000e+00  1.0000001311077538e+00 0.0000000000000000e+00 0.0000000000000000e+00  1.0000001311077538e+00 0.0000000000000000e+00 0.0000000000000000e+00  1.0000001311077538e+00 0.0000000000000000e+00 0.0000000000000000e+00  1.0000001311077538e+00 0.0000000000000000e+00 0.0000000000000000e+00  1.0000001311077538e+00 0.0000000000000000e+00 0.0000000000000000e+00  1.0000001311077538e+00 0.0000000000000000e+00 0.0000000000000000e+00  1.0000001311077538e+00 0.0000000000000000e+00 0.0000000000000000e+00  1.0000001311077538e+00 0.0000000000000000e+00 0.0000000000000000e+00  1.0000001311077538e+00 0.0000000000000000e+00 0.0000000000000000e+00  1.0000001311077538e+00 0.0000000000000000e+00 0.0000000000000000e+00  1.0000001311077538e+00 0.0000000000000000e+00 0.0000000000000000e+00  1.0000001311077538e+00 0.0000000000000000e+00 0.0000000000000000e+00  1.0000001311077538e+00 0.0000000000000000e+00 0.0000000000000000e+00  1.0000001311077538e+00 0.0000000000000000e+00 0.0000000000000000e+00  1.0000001311077538e+00 0.0000000000000000e+00 0.0000000000000000e+00  1.0000001311077538e+00 0.0000000000000000e+00 0.0000000000000000e+00  1.0000001311077538e+00 0.0000000000000000e+00 0.0000000000000000e+00  1.0390591086505299e+00 -8.9785848444504796e-03 0.0000000000000000e+00  1.0361941480685233e+00 -1.8162057156445303e-02 0.0000000000000000e+00  1.0342113777110422e+00 -2.8209469625156535e-02 0.0000000000000000e+00  1.0289329638156772e+00 -3.8645492269940997e-02 0.0000000000000000e+00  1.0237590663003897e+00 -5.2825982867906310e-02 0.0000000000000000e+00  1.0281796542470769e+00 -5.5844614966336775e-02 0.0000000000000000e+00  1.0321299211412374e+00 -5.8908867325435141e-02 0.0000000000000000e+00  1.0370815230378425e+00 -6.1609157528351138e-02 0.0000000000000000e+00  1.0422204158199717e+00 -6.4127003704546867e-02 0.0000000000000000e+00  1.0479205452605600e+00 -6.6162613246237470e-02 0.0000000000000000e+00  1.0541190201002257e+00 -6.7816191296031059e-02 0.0000000000000000e+00  1.0606199407330681e+00 -6.8767885221587666e-02 0.0000000000000000e+00  1.0675332341658965e+00 -6.9129036423056858e-02 0.0000000000000000e+00  1.0743653632691421e+00 -6.8580459843484792e-02 0.0000000000000000e+00  1.0813552253662984e+00 -6.7411854902281465e-02 0.0000000000000000e+00  1.0881165995262558e+00 -6.5546193360384530e-02 0.0000000000000000e+00  1.0947651754899750e+00 -6.2648141525579307e-02 0.0000000000000000e+00  1.1007663359761555e+00 -5.8917875357911043e-02 0.0000000000000000e+00  1.1061689759676117e+00 -5.4728343562843215e-02 0.0000000000000000e+00  1.1108453477379090e+00 -4.9980355549015837e-02 0.0000000000000000e+00  1.1146218637072631e+00 -4.4880461424639237e-02 0.0000000000000000e+00  1.1174438796455213e+00 -3.9573605902166464e-02 0.0000000000000000e+00  1.1194512299234725e+00 -3.4400132839492191e-02 0.0000000000000000e+00  1.1205620465509643e+00 -2.9234809998670796e-02 0.0000000000000000e+00  1.1209226613384271e+00 -2.4758074410645505e-02 0.0000000000000000e+00  1.1206258023654478e+00 -2.0444981417421786e-02 0.0000000000000000e+00  1.1198124328828010e+00 -1.6817364624504727e-02 0.0000000000000000e+00  1.1188283036177946e+00 -1.4042070721216618e-02 0.0000000000000000e+00  1.1177262907988881e+00 -1.2009670555959962e-02 0.0000000000000000e+00  1.1167400222679922e+00 -1.0669202585732420e-02 0.0000000000000000e+00  1.1160810112701924e+00 -9.8115709701539020e-03 0.0000000000000000e+00  1.1159897068036460e+00 -9.4633696824929642e-03 0.0000000000000000e+00  1.1164059244502997e+00 -9.3289496682275909e-03 0.0000000000000000e+00  1.1176288497251268e+00 -9.1719352068710385e-03 0.0000000000000000e+00  1.1195589045429855e+00 -8.8263400537915305e-03 0.0000000000000000e+00  1.1221072289065452e+00 -7.9242717495779