<?xml version="1.0"?>
<VTKFile type="UnstructuredGrid"  version="0.1"  >
<UnstructuredGrid>
<Piece  NumberOfPoints="10199" NumberOfCells="20110">
<Points>
<DataArray  type="Float64"  NumberOfComponents="3"  format="ascii">0 -5 0  8 -5 0  30 -5 0  40 -5 0  40 5 0  30 5 0  8 5 0  0 5 0  8 -2.5 0  15 -2.5 0  30 -2.5 0  30 2.5 0  15 2.5 0  8 2.5 0  10 0.5 0  10 -0.5 0  0 0 0  0.4210526315780956 -5 0  0.8421052631563433 -5 0  1.263157894734281 -5 0  1.684210526311999 -5 0  2.105263157889717 -5 0  2.526315789467435 -5 0  2.947368421045153 -5 0  3.368421052622872 -5 0  3.78947368420059 -5 0  4.210526315779479 -5 0  4.631578947359537 -5 0  5.052631578939595 -5 0  5.473684210519653 -5 0  5.89473684209971 -5 0  6.315789473679768 -5 0  6.736842105259826 -5 0  7.157894736839884 -5 0  7.578947368419942 -5 0  8.407407407405314 -5 0  8.814814814810628 -5 0  9.222222222215942 -5 0  9.629629629621256 -5 0  10.03703703702657 -5 0  10.44444444443188 -5 0  10.8518518518372 -5 0  11.25925925924251 -5 0  11.66666666664783 -5 0  12.07407407405314 -5 0  12.48148148145846 -5 0  12.88888888886377 -5 0  13.29629629626908 -5 0  13.7037037036744 -5 0  14.11111111107971 -5 0  14.51851851848502 -5 0  14.92592592589034 -5 0  15.33333333329565 -5 0  15.74074074070096 -5 0  16.14814814810754 -5 0  16.55555555551614 -5 0  16.96296296292474 -5 0  17.37037037033335 -5 0  17.77777777774195 -5 0  18.18518518515056 -5 0  18.59259259255916 -5 0  18.99999999996776 -5 0  19.40740740737636 -5 0  19.81481481478497 -5 0  20.22222222219357 -5 0  20.62962962960217 -5 0  21.03703703701077 -5 0  21.44444444441937 -5 0  21.85185185182797 -5 0  22.25925925923657 -5 0  22.66666666664518 -5 0  23.07407407405378 -5 0  23.48148148146238 -5 0  23.88888888887098 -5 0  24.29629629627958 -5 0  24.70370370368818 -5 0  25.11111111109678 -5 0  25.51851851850539 -5 0  25.92592592591399 -5 0  26.33333333332259 -5 0  26.74074074073119 -5 0  27.14814814813979 -5 0  27.55555555554839 -5 0  27.96296296295699 -5 0  28.3703703703656 -5 0  28.7777777777742 -5 0  29.1851851851828 -5 0  29.5925925925914 -5 0  30.41666666667852 -5 0  30.83333333335704 -5 0  31.25000000003556 -5 0  31.66666666671408 -5 0  32.08333333338936 -5 0  32.50000000005308 -5 0  32.9166666667168 -5 0  33.33333333338052 -5 0  33.75000000004424 -5 0  34.16666666670795 -5 0  34.58333333337167 -5 0  35.00000000003539 -5 0  35.41666666669911 -5 0  35.83333333336282 -5 0  36.25000000002654 -5 0  36.66666666669026 -5 0  37.08333333335398 -5 0  37.50000000001769 -5 0  37.91666666668141 -5 0  38.33333333334513 -5 0  38.75000000000885 -5 0  39.16666666667257 -5 0  39.58333333333628 -5 0  40 -4.583333333332821 0  40 -4.166666666665642 0  40 -3.74999999999855 0  40 -3.333333333333135 0  40 -2.916666666667806 0  40 -2.500000000002478 0  40 -2.083333333337148 0  40 -1.666666666671818 0  40 -1.250000000006488 0  40 -0.8333333333405228 0  40 -0.4166666666733416 0  40 -6.163070054299169e-12 0  40 0.4166666666610173 0  40 0.8333333333281976 0  40 1.249999999995378 0  40 1.666666666662558 0  40 2.083333333329739 0  40 2.499999999996919 0  40 2.916666666664099 0  40 3.33333333333128 0  40 3.74999999999846 0  40 4.166666666665641 0  40 4.583333333332821 0  39.58333333333628 5 0  39.16666666667256 5 0  38.75000000000885 5 0  38.33333333334513 5 0  37.91666666668141 5 0  37.50000000001769 5 0  37.08333333335398 5 0  36.66666666669025 5 0  36.25000000002654 5 0  35.83333333336282 5 0  35.41666666669911 5 0  35.00000000003539 5 0  34.58333333337167 5 0  34.16666666670795 5 0  33.75000000004424 5 0  33.33333333338052 5 0  32.9166666667168 5 0  32.50000000005308 5 0  32.08333333338936 5 0  31.66666666671408 5 0  31.25000000003556 5 0  30.83333333335704 5 0  30.41666666667852 5 0  29.59259259259259 5 0  29.18518518518519 5 0  28.77777777777778 5 0  28.37037037037037 5 0  27.96296296296296 5 0  27.55555555555556 5 0  27.14814814814815 5 0  26.74074074074074 5 0  26.33333333333333 5 0  25.92592592592593 5 0  25.51851851851852 5 0  25.11111111111111 5 0  24.7037037037037 5 0  24.2962962962963 5 0  23.88888888888889 5 0  23.48148148148148 5 0  23.07407407407408 5 0  22.66666666666667 5 0  22.25925925925926 5 0  21.85185185185185 5 0  21.44444444444445 5 0  21.03703703703704 5 0  20.62962962962963 5 0  20.22222222222222 5 0  19.81481481481482 5 0  19.40740740740741 5 0  19 5 0  18.5925925925926 5 0  18.18518518518519 5 0  17.77777777777778 5 0  17.37037037037037 5 0  16.96296296296296 5 0  16.55555555555556 5 0  16.14814814814815 5 0  15.74074074074074 5 0  15.33333333333333 5 0  14.92592592592593 5 0  14.51851851851852 5 0  14.11111111111111 5 0  13.70370370370371 5 0  13.2962962962963 5 0  12.88888888888889 5 0  12.48148148148148 5 0  12.07407407407408 5 0  11.66666666666667 5 0  11.25925925925926 5 0  10.85185185185185 5 0  10.44444444444445 5 0  10.03703703703704 5 0  9.629629629629633 5 0  9.222222222222221 5 0  8.814814814814817 5 0  8.407407407407408 5 0  7.5789473684193 5 0  7.157894736838599 5 0  6.73684210526082 5 0  6.315789473684795 5 0  5.894736842108769 5 0  5.473684210532742 5 0  5.052631578956715 5 0  4.631578947380689 5 0  4.210526315804662 5 0  3.789473684226299 5 0  3.368421052645599 5 0  2.947368421064898 5 0  2.526315789484198 5 0  2.105263157903499 5 0  1.6842105263228 5 0  1.2631578947421 5 0  0.8421052631613994 5 0  0.4210526315806993 5 0  0 4.545454545454545 0  0 4.09090909090909 0  0 3.636363636363634 0  0 3.18181818181818 0  0 2.727272727272726 0  0 2.272727272727271 0  0 1.818181818181817 0  0 1.363636363636363 0  0 0.9090909090909092 0  0 0.454545454545455 0  0 -0.4545454545450807 0  0 -0.9090909090895867 0  0 -1.363636363633713 0  0 -1.818181818177841 0  0 -2.272727272723127 0  0 -2.727272727269273 0  0 -3.181818181815419 0  0 -3.636363636361564 0  0 -4.090909090907709 0  0 -4.545454545453855 0  8 -4.499999999999999 0  8 -3.999999999999999 0  8 -3.499999999999999 0  8 -3 0  8.137254901963859 -2.5 0  8.274509803926303 -2.5 0  8.411764705886863 -2.5 0  8.549019607849138 -2.5 0  8.686274509809513 -2.5 0  8.82352941176989 -2.5 0  8.960784313730265 -2.5 0  9.098039215690642 -2.5 0  9.235294117651017 -2.5 0  9.372549019611395 -2.5 0  9.50980392157177 -2.5 0  9.647058823532147 -2.5 0  9.784313725492522 -2.5 0  9.921568627452897 -2.5 0  10.05882352941327 -2.5 0  10.19607843137365 -2.5 0  10.33333333333402 -2.5 0  10.4705882352944 -2.5 0  10.60784313725478 -2.5 0  10.74509803921515 -2.5 0  10.88235294117553 -2.5 0  11.0196078431359 -2.5 0  11.15686274509628 -2.5 0  11.29411764705665 -2.5 0  11.43137254901703 -2.5 0  11.56862745097915 -2.5 0  11.70588235294301 -2.5 0  11.84313725490686 -2.5 0  11.98039215687072 -2.5 0  12.11764705883209 -2.5 0  12.25490196079247 -2.5 0  12.39215686275285 -2.5 0  12.52941176471322 -2.5 0  12.6666666666736 -2.5 0  12.80392156863397 -2.5 0  12.94117647059435 -2.5 0  13.07843137255473 -2.5 0  13.2156862745151 -2.5 0  13.35294117647548 -2.5 0  13.49019607843586 -2.5 0  13.62745098039623 -2.5 0  13.76470588235661 -2.5 0  13.90196078431699 -2.5 0  14.03921568627736 -2.5 0  14.17647058823774 -2.5 0  14.31372549019812 -2.5 0  14.45098039215849 -2.5 0  14.58823529411887 -2.5 0  14.72549019607925 -2.5 0  14.86274509803962 -2.5 0  15.20270270270254 -2.5 0  15.40540540540509 -2.5 0  15.60810810810763 -2.5 0  15.81081081081017 -2.5 0  16.01351351351227 -2.5 0  16.21621621621265 -2.5 0  16.41891891891279 -2.5 0  16.62162162161294 -2.5 0  16.82432432431308 -2.5 0  17.02702702701322 -2.5 0  17.22972972971337 -2.5 0  17.43243243241351 -2.5 0  17.63513513511365 -2.5 0  17.83783783781379 -2.5 0  18.04054054051394 -2.5 0  18.24324324321408 -2.5 0  18.44594594591422 -2.5 0  18.64864864861436 -2.5 0  18.85135135131451 -2.5 0  19.05405405401465 -2.5 0  19.25675675671479 -2.5 0  19.45945945941494 -2.5 0  19.66216216211508 -2.5 0  19.86486486481522 -2.5 0  20.06756756751536 -2.5 0  20.27027027021551 -2.5 0  20.47297297291565 -2.5 0  20.6756756756158 -2.5 0  20.87837837831594 -2.5 0  21.08108108101608 -2.5 0  21.28378378371622 -2.5 0  21.48648648641637 -2.5 0  21.68918918911651 -2.5 0  21.89189189181666 -2.5 0  22.0945945945168 -2.5 0  22.29729729721694 -2.5 0  22.49999999991778 -2.5 0  22.70270270262203 -2.5 0  22.90540540532697 -2.5 0  23.10810810803191 -2.5 0  23.31081081073686 -2.5 0  23.5135135134418 -2.5 0  23.71621621614674 -2.5 0  23.91891891885169 -2.5 0  24.12162162155663 -2.5 0  24.32432432426158 -2.5 0  24.52702702696652 -2.5 0  24.72972972967146 -2.5 0  24.93243243237641 -2.5 0  25.13513513508135 -2.5 0  25.3378378377863 -2.5 0  25.54054054049124 -2.5 0  25.74324324319618 -2.5 0  25.94594594590112 -2.5 0  26.14864864860607 -2.5 0  26.35135135131101 -2.5 0  26.55405405401596 -2.5 0  26.7567567567209 -2.5 0  26.95945945942584 -2.5 0  27.16216216213079 -2.5 0  27.36486486483573 -2.5 0  27.56756756754068 -2.5 0  27.77027027024562 -2.5 0  27.97297297295056 -2.5 0  28.1756756756555 -2.5 0  28.37837837836045 -2.5 0  28.5810810810654 -2.5 0  28.78378378377034 -2.5 0  28.98648648647528 -2.5 0  29.18918918918023 -2.5 0  29.39189189188517 -2.5 0  29.59459459459011 -2.5 0  29.79729729729506 -2.5 0  30 -3.000000000000001 0  30 -3.500000000000001 0  30 -4.000000000000001 0  30 -4.5 0  8 4.499999999999999 0  8 3.999999999999999 0  8 3.499999999999999 0  8 3 0  8.137254901963859 2.5 0  8.274509803926303 2.5 0  8.411764705886863 2.5 0  8.549019607849138 2.5 0  8.686274509809513 2.5 0  8.82352941176989 2.5 0  8.960784313730265 2.5 0  9.098039215690642 2.5 0  9.235294117651017 2.5 0  9.372549019611395 2.5 0  9.50980392157177 2.5 0  9.647058823532147 2.5 0  9.784313725492522 2.5 0  9.921568627452897 2.5 0  10.05882352941327 2.5 0  10.19607843137365 2.5 0  10.33333333333402 2.5 0  10.4705882352944 2.5 0  10.60784313725478 2.5 0  10.74509803921515 2.5 0  10.88235294117553 2.5 0  11.0196078431359 2.5 0  11.15686274509628 2.5 0  11.29411764705665 2.5 0  11.43137254901703 2.5 0  11.56862745097915 2.5 0  11.70588235294301 2.5 0  11.84313725490686 2.5 0  11.98039215687072 2.5 0  12.11764705883209 2.5 0  12.25490196079247 2.5 0  1
[...]
<PointData  Vectors="f_17"> 
<DataArray  type="Float64"  Name="f_17"  NumberOfComponents="3" format="ascii">1.0000001313520273e+00 0.0000000000000000e+00 0.0000000000000000e+00  1.0393443263296991e+00 0.0000000000000000e+00 0.0000000000000000e+00  1.0639973277742347e+00 0.0000000000000000e+00 0.0000000000000000e+00  1.0907235217791853e+00 0.0000000000000000e+00 0.0000000000000000e+00  1.0739696602301156e+00 0.0000000000000000e+00 0.0000000000000000e+00  1.0504658895158259e+00 0.0000000000000000e+00 0.0000000000000000e+00  1.0415023092237961e+00 0.0000000000000000e+00 0.0000000000000000e+00  1.0000001313520273e+00 0.0000000000000000e+00 0.0000000000000000e+00  1.0207162942897903e+00 -4.9175559880998330e-02 0.0000000000000000e+00  1.0418285094758584e+00 8.8960986816383369e-02 0.0000000000000000e+00  1.1137033110592260e+00 5.3445028863581073e-02 0.0000000000000000e+00  1.0077026978548063e+00 5.3348013865665150e-02 0.0000000000000000e+00  1.0741676984925894e+00 6.1799547898607553e-02 0.0000000000000000e+00  1.0220775817413550e+00 5.2407614750814659e-02 0.0000000000000000e+00  0.0000000000000000e+00 0.0000000000000000e+00 0.0000000000000000e+00  0.0000000000000000e+00 0.0000000000000000e+00 0.0000000000000000e+00  1.0000001313520273e+00 0.0000000000000000e+00 0.0000000000000000e+00  9.9930571468892748e-01 0.0000000000000000e+00 0.0000000000000000e+00  9.9878982529851390e-01 0.0000000000000000e+00 0.0000000000000000e+00  1.0008720642997573e+00 0.0000000000000000e+00 0.0000000000000000e+00  1.0006945749530143e+00 0.0000000000000000e+00 0.0000000000000000e+00  1.0016357244712366e+00 0.0000000000000000e+00 0.0000000000000000e+00  1.0018846754349779e+00 0.0000000000000000e+00 0.0000000000000000e+00  1.0020598869676267e+00 0.0000000000000000e+00 0.0000000000000000e+00  1.0027286296805762e+00 0.0000000000000000e+00 0.0000000000000000e+00  1.0037816483715059e+00 0.0000000000000000e+00 0.0000000000000000e+00  1.0047268255399668e+00 0.0000000000000000e+00 0.0000000000000000e+00  1.0060324664098714e+00 0.0000000000000000e+00 0.0000000000000000e+00  1.0081035113308243e+00 0.0000000000000000e+00 0.0000000000000000e+00  1.0103046638520836e+00 0.0000000000000000e+00 0.0000000000000000e+00  1.0140991379990090e+00 0.0000000000000000e+00 0.0000000000000000e+00  1.0156650722483314e+00 0.0000000000000000e+00 0.0000000000000000e+00  1.0200368304528298e+00 0.0000000000000000e+00 0.0000000000000000e+00  1.0265588073020211e+00 0.0000000000000000e+00 0.0000000000000000e+00  1.0317254963561024e+00 0.0000000000000000e+00 0.0000000000000000e+00  1.0470024784006278e+00 0.0000000000000000e+00 0.0000000000000000e+00  1.0551099745831369e+00 0.0000000000000000e+00 0.0000000000000000e+00  1.0626792686997504e+00 0.0000000000000000e+00 0.0000000000000000e+00  1.0707580952154683e+00 0.0000000000000000e+00 0.0000000000000000e+00  1.0774958323490353e+00 0.0000000000000000e+00 0.0000000000000000e+00  1.0836837682533542e+00 0.0000000000000000e+00 0.0000000000000000e+00  1.0896176170071068e+00 0.0000000000000000e+00 0.0000000000000000e+00  1.0931380966215201e+00 0.0000000000000000e+00 0.0000000000000000e+00  1.0958742679691544e+00 0.0000000000000000e+00 0.0000000000000000e+00  1.0968700649314329e+00 0.0000000000000000e+00 0.0000000000000000e+00  1.0966800802001433e+00 0.0000000000000000e+00 0.0000000000000000e+00  1.0937722268962971e+00 0.0000000000000000e+00 0.0000000000000000e+00  1.0901682609150611e+00 0.0000000000000000e+00 0.0000000000000000e+00  1.0846983269421178e+00 0.0000000000000000e+00 0.0000000000000000e+00  1.0777821785068316e+00 0.0000000000000000e+00 0.0000000000000000e+00  1.0704734352205045e+00 0.0000000000000000e+00 0.0000000000000000e+00  1.0629819514008196e+00 0.0000000000000000e+00 0.0000000000000000e+00  1.0563676709432197e+00 0.0000000000000000e+00 0.0000000000000000e+00  1.0509141990109128e+00 0.0000000000000000e+00 0.0000000000000000e+00  1.0473294742165844e+00 0.0000000000000000e+00 0.0000000000000000e+00  1.0471654054801636e+00 0.0000000000000000e+00 0.0000000000000000e+00  1.0495983339879340e+00 0.0000000000000000e+00 0.0000000000000000e+00  1.0524541845664315e+00 0.0000000000000000e+00 0.0000000000000000e+00  1.0568143159994139e+00 0.0000000000000000e+00 0.0000000000000000e+00  1.0606323279970489e+00 0.0000000000000000e+00 0.0000000000000000e+00  1.0628519832395149e+00 0.0000000000000000e+00 0.0000000000000000e+00  1.0634024919637670e+00 0.0000000000000000e+00 0.0000000000000000e+00  1.0611470858370111e+00 0.0000000000000000e+00 0.0000000000000000e+00  1.0571087574119193e+00 0.0000000000000000e+00 0.0000000000000000e+00  1.0523199304848070e+00 0.0000000000000000e+00 0.0000000000000000e+00  1.0468073345106927e+00 0.0000000000000000e+00 0.0000000000000000e+00  1.0422195542996011e+00 0.0000000000000000e+00 0.0000000000000000e+00  1.0410253908354312e+00 0.0000000000000000e+00 0.0000000000000000e+00  1.0410683858380139e+00 0.0000000000000000e+00 0.0000000000000000e+00  1.0431722160240715e+00 0.0000000000000000e+00 0.0000000000000000e+00  1.0481408788118836e+00 0.0000000000000000e+00 0.0000000000000000e+00  1.0530361362437897e+00 0.0000000000000000e+00 0.0000000000000000e+00  1.0575204843826915e+00 0.0000000000000000e+00 0.0000000000000000e+00  1.0621917209065441e+00 0.0000000000000000e+00 0.0000000000000000e+00  1.0638821738684530e+00 0.0000000000000000e+00 0.0000000000000000e+00  1.0630421038375635e+00 0.0000000000000000e+00 0.0000000000000000e+00  1.0609485651288999e+00 0.0000000000000000e+00 0.0000000000000000e+00  1.0569167446236376e+00 0.0000000000000000e+00 0.0000000000000000e+00  1.0526700738586803e+00 0.0000000000000000e+00 0.0000000000000000e+00  1.0498627810025352e+00 0.0000000000000000e+00 0.0000000000000000e+00  1.0477173006069778e+00 0.0000000000000000e+00 0.0000000000000000e+00  1.0472971014489654e+00 0.0000000000000000e+00 0.0000000000000000e+00  1.0513213074328704e+00 0.0000000000000000e+00 0.0000000000000000e+00  1.0546884668949150e+00 0.0000000000000000e+00 0.0000000000000000e+00  1.0571198262487516e+00 0.0000000000000000e+00 0.0000000000000000e+00  1.0603149595486625e+00 0.0000000000000000e+00 0.0000000000000000e+00  1.0638480987917887e+00 0.0000000000000000e+00 0.0000000000000000e+00  1.0646937802198175e+00 0.0000000000000000e+00 0.0000000000000000e+00  1.0612602983001769e+00 0.0000000000000000e+00 0.0000000000000000e+00  1.0569349068780152e+00 0.0000000000000000e+00 0.0000000000000000e+00  1.0527141984393498e+00 0.0000000000000000e+00 0.0000000000000000e+00  1.0505423457881304e+00 0.0000000000000000e+00 0.0000000000000000e+00  1.0502533872237532e+00 0.0000000000000000e+00 0.0000000000000000e+00  1.0514524950964164e+00 0.0000000000000000e+00 0.0000000000000000e+00  1.0545270614387652e+00 0.0000000000000000e+00 0.0000000000000000e+00  1.0587289418069530e+00 0.0000000000000000e+00 0.0000000000000000e+00  1.0630901018931858e+00 0.0000000000000000e+00 0.0000000000000000e+00  1.0659826863576125e+00 0.0000000000000000e+00 0.0000000000000000e+00  1.0679032795963921e+00 0.0000000000000000e+00 0.0000000000000000e+00  1.0676478125045050e+00 0.0000000000000000e+00 0.0000000000000000e+00  1.0655949628214645e+00 0.0000000000000000e+00 0.0000000000000000e+00  1.0630531127486165e+00 0.0000000000000000e+00 0.0000000000000000e+00  1.0603109348057755e+00 0.0000000000000000e+00 0.0000000000000000e+00  1.0589179613984852e+00 0.0000000000000000e+00 0.0000000000000000e+00  1.0584526075389007e+00 0.0000000000000000e+00 0.0000000000000000e+00  1.0606695110026620e+00 0.0000000000000000e+00 0.0000000000000000e+00  1.0647589194930720e+00 0.0000000000000000e+00 0.0000000000000000e+00  1.0710324130604332e+00 0.0000000000000000e+00 0.0000000000000000e+00  1.0773185228629372e+00 0.0000000000000000e+00 0.0000000000000000e+00  1.0837709748630504e+00 0.0000000000000000e+00 0.0000000000000000e+00  1.0878128703402057e+00 0.0000000000000000e+00 0.0000000000000000e+00  1.0925156950838268e+00 -1.4517188753306533e-03 0.0000000000000000e+00  1.0975176795571844e+00 -2.7003345891394499e-03 0.0000000000000000e+00  1.1074839718121767e+00 -3.3106594575040668e-03 0.0000000000000000e+00  1.1245299974057801e+00 -2.4232457692742607e-03 0.0000000000000000e+00  1.1527084657860558e+00 2.9238021162566710e-03 0.0000000000000000e+00  1.1781808336826913e+00 1.2619299802880474e-02 0.0000000000000000e+00  1.1755434709561505e+00 3.6790311922787026e-02 0.0000000000000000e+00  1.1211389395659932e+00 6.8679854267958168e-02 0.0000000000000000e+00  1.0098244164783834e+00 1.0977805678257839e-01 0.0000000000000000e+00  8.7235821902025290e-01 1.4549238376865670e-01 0.0000000000000000e+00  7.6204684826127667e-01 1.7163071415096581e-01 0.0000000000000000e+00  7.1176990559544528e-01 1.7849740550602367e-01 0.0000000000000000e+00  7.2609436327294241e-01 1.6940847209013368e-01 0.0000000000000000e+00  7.7869230264933398e-01 1.5755006653706860e-01 0.0000000000000000e+00  8.4832653315414408e-01 1.3132591430173862e-01 0.0000000000000000e+00  9.1080333529146196e-01 9.7067061593980264e-02 0.0000000000000000e+00  9.5951991160311700e-01 6.4728055555338532e-02 0.0000000000000000e+00  1.0003290037531811e+00 4.2005580023067632e-02 0.0000000000000000e+00  1.0313860493229052e+00 3.1247056184896125e-02 0.0000000000000000e+00  1.0526459504887082e+00 2.2343396908700606e-02 0.0000000000000000e+00  1.0644530450625882e+00 1.5596097577150973e-02 0.0000000000000000e+00  1.0711472055521105e+00 9.8366473088585711e-03 0.0000000000000000e+00  1.0736796037241065e+00 4.6761981397527635e-03 0.0000000000000000e+00  1.0703194379470102e+00 0.0000000000000000e+00 0.0000000000000000e+00  1.0689790728529371e+00 0.0000000000000000e+00 0.0000000000000000e+00  1.0693583290578632e+00 0.0000000000000000e+00 0.0000000000000000e+00  1.0710963287691031e+00 0.0000000000000000e+00 0.0000000000000000e+00  1.0722468927259670e+00 0.0000000000000000e+00 0.0000000000000000e+00  1.0729808857163048e+00 0.0000000000000000e+00 0.0000000000000000e+00  1.0725033145102267e+00 0.0000000000000000e+00 0.0000000000000000e+00  1.0703513819157058e+00 0.0000000000000000e+00 0.0000000000000000e+00  1.0660680376104887e+00 0.0000000000000000e+00 0.0000000000000000e+00  1.0613199398576914e+00 0.0000000000000000e+00 0.0000000000000000e+00  1.0567680081598827e+00 0.0000000000000000e+00 0.0000000000000000e+00  1.0532098845404494e+00 0.0000000000000000e+00 0.0000000000000000e+00  1.0516715250025306e+00 0.0000000000000000e+00 0.0000000000000000e+00  1.0528691044440570e+00 0.0000000000000000e+00 0.0000000000000000e+00  1.0551725068697198e+00 0.0000000000000000e+00 0.0000000000000000e+00  1.0593414463578195e+00 0.0000000000000000e+00 0.0000000000000000e+00  1.0623002437164579e+00 0.0000000000000000e+00 0.0000000000000000e+00  1.0647830517416779e+00 0.0000000000000000e+00 0.0000000000000000e+00  1.0652780279539806e+00 0.0000000000000000e+00 0.0000000000000000e+00  1.0644121579494199e+00 0.0000000000000000e+00 0.0000000000000000e+00  1.0616608774138279e+00 0.0000000000000000e+00 0.0000000000000000e+00  1.0573229876477002e+00 0.0000000000000000e+00 0.0000000000000000e+00  1.0536176127754802e+00 0.0000000000000000e+00 0.0000000000000000e+00  1.0482674163309218e+00 0.0000000000000000e+00 0.0000000000000000e+00  1.0487137423864386e+00 0.0000000000000000e+00 0.0000000000000000e+00  1.0499257081320943e+00 0.0000000000000000e+00 0.0000000000000000e+00  1.0540263970853359e+00 0.0000000000000000e+00 0.0000000000000000e+00  1.0595317618875151e+00 0.0000000000000000e+00 0.0000000000000000e+00  1.0631572511576677e+00 0.0000000000000000e+00 0.0000000000000000e+00  1.0634862044679896e+00 0.0000000000000000e+00 0.0000000000000000e+00  1.0639777749837900e+00 0.0000000000000000e+00 0.0000000000000000e+00  1.0621155981892221e+00 0.0000000000000000e+00 0.0000000000000000e+00  1.0577533865815192e+00 0.0000000000000000e+00 0.0000000000000000e+00  1.0532542279872592e+00 0.0000000000000000e+00 0.0000000000000000e+00  1.0489634432256796e+00 0.0000000000000000e+00 0.0000000000000000e+00  1.0451663232064838e+00 0.0000000000000000e+00 0.0000000000000000e+00  1.0440582913630727e+00 0.0000000000000000e+00 0.0000000000000000e+00  1.0450536342228429e+00 0.0000000000000000e+00 0.0000000000000000e+00  1.0470460494566649e+00 0.0000000000000000e+00 0.0000000000000000e+00  1.0516346238573129e+00 0.0000000000000000e+00 0.0000000000000000e+00  1.0564280884586115e+00 0.0000000000000000e+00 0.0000000000000000e+00  1.0596433064726261e+00 0.0000000000000000e+00 0.0000000000000000e+00  1.0619508192517719e+00 0.0000000000000000e+00 0.0000000000000000e+00  1.0617526779423976e+00 0.0000000000000000e+00 0.0000000000000000e+00  1.0580750507901315e+00 0.0000000000000000e+00 0.0000000000000000e+00  1.0539843186739148e+00 0.0000000000000000e+00 0.0000000000000000e+00  1.0489004644299034e+00 0.0000000000000000e+00 0.0000000000000000e+00  1.0432379800541889e+00 0.0000000000000000e+00 0.0000000000000000e+00  1.0394948997381808e+00 0.0000000000000000e+00 0.0000000000000000e+00  1.0379001488669248e+00 0.0000000000000000e+00 0.0000000000000000e+00  1.0385151540844459e+00 0.0000000000000000e+00 0.0000000000000000e+00  1.0418755271814213e+00 0.0000000000000000e+00 0.0000000000000000e+00  1.0471487224608824e+00 0.0000000000000000e+00 0.0000000000000000e+00  1.0530690853078482e+00 0.0000000000000000e+00 0.0000000000000000e+00  1.0597878648217860e+00 0.0000000000000000e+00 0.0000000000000000e+00  1.0644003580850776e+00 0.0000000000000000e+00 0.0000000000000000e+00  1.0678201164256949e+00 0.0000000000000000e+00 0.0000000000000000e+00  1.0702842064575973e+00 0.0000000000000000e+00 0.0000000000000000e+00  1.0710090958365301e+00 0.0000000000000000e+00 0.0000000000000000e+00  1.0703397633749909e+00 0.0000000000000000e+00 0.0000000000000000e+00  1.0691724671813896e+00 0.0000000000000000e+00 0.0000000000000000e+00  1.0691074408099286e+00 0.0000000000000000e+00 0.0000000000000000e+00  1.0710312720758468e+00 0.0000000000000000e+00 0.0000000000000000e+00  1.0735331257603762e+00 0.0000000000000000e+00 0.0000000000000000e+00  1.0769343128629218e+00 0.0000000000000000e+00 0.0000000000000000e+00  1.0822699554588615e+00 0.0000000000000000e+00 0.0000000000000000e+00  1.0856514704110958e+00 0.0000000000000000e+00 0.0000000000000000e+00  1.0888583293083507e+00 0.0000000000000000e+00 0.0000000000000000e+00  1.0900360037995664e+00 0.0000000000000000e+00 0.0000000000000000e+00  1.0885800778194916e+00 0.0000000000000000e+00 0.0000000000000000e+00  1.0851567297560150e+00 0.0000000000000000e+00 0.0000000000000000e+00  1.0801713832353801e+00 0.0000000000000000e+00 0.0000000000000000e+00  1.0737244621750790e+00 0.0000000000000000e+00 0.0000000000000000e+00  1.0655321260969839e+00 0.0000000000000000e+00 0.0000000000000000e+00  1.0578908418668993e+00 0.0000000000000000e+00 0.0000000000000000e+00  1.0495232275344197e+00 0.0000000000000000e+00 0.0000000000000000e+00  1.0337470192584903e+00 0.0000000000000000e+00 0.0000000000000000e+00  1.0270498069406593e+00 0.0000000000000000e+00 0.0000000000000000e+00  1.0217664966060194e+00 0.0000000000000000e+00 0.0000000000000000e+00  1.0170557832594909e+00 0.0000000000000000e+00 0.0000000000000000e+00  1.0131994231538699e+00 0.0000000000000000e+00 0.0000000000000000e+00  1.0101551492072622e+00 0.0000000000000000e+00 0.0000000000000000e+00  1.0078162419188135e+00 0.0000000000000000e+00 0.0000000000000000e+00  1.0055277811057945e+00 0.0000000000000000e+00 0.0000000000000000e+00  1.0039111086788164e+00 0.0000000000000000e+00 0.0000000000000000e+00  1.0027440489643540e+00 0.0000000000000000e+00 0.0000000000000000e+00  1.0014413263015138e+00 0.0000000000000000e+00 0.0000000000000000e+00  1.0011911120711934e+00 0.0000000000000000e+00 0.0000000000000000e+00  1.0000736966400892e+00 0.0000000000000000e+00 0.0000000000000000e+00  1.0000307798487678e+00 0.0000000000000000e+00 0.0000000000000000e+00  9.9965975108731875e-01 0.0000000000000000e+00 0.0000000000000000e+00  1.0003771164377344e+00 0.0000000000000000e+00 0.0000000000000000e+00  1.0001918880299225e+00 0.0000000000000000e+00 0.0000000000000000e+00  9.9978840317340967e-01 0.0000000000000000e+00 0.0000000000000000e+00  1.0000001313520273e+00 0.0000000000000000e+00 0.0000000000000000e+00  1.0000001313520273e+00 0.0000000000000000e+00 0.0000000000000000e+00  1.0000001313520273e+00 0.0000000000000000e+00 0.0000000000000000e+00  1.0000001313520273e+00 0.0000000000000000e+00 0.0000000000000000e+00  1.0000001313520273e+00 0.0000000000000000e+00 0.0000000000000000e+00  1.0000001313520273e+00 0.0000000000000000e+00 0.0000000000000000e+00  1.0000001313520273e+00 0.0000000000000000e+00 0.0000000000000000e+00  1.0000001313520273e+00 0.0000000000000000e+00 0.0000000000000000e+00  1.0000001313520273e+00 0.0000000000000000e+00 0.0000000000000000e+00  1.0000001313520273e+00 0.0000000000000000e+00 0.0000000000000000e+00  1.0000001313520273e+00 0.0000000000000000e+00 0.0000000000000000e+00  1.0000001313520273e+00 0.0000000000000000e+00 0.0000000000000000e+00  1.0000001313520273e+00 0.0000000000000000e+00 0.0000000000000000e+00  1.0000001313520273e+00 0.0000000000000000e+00 0.0000000000000000e+00  1.0000001313520273e+00 0.0000000000000000e+00 0.0000000000000000e+00  1.0000001313520273e+00 0.0000000000000000e+00 0.0000000000000000e+00  1.0000001313520273e+00 0.0000000000000000e+00 0.0000000000000000e+00  1.0000001313520273e+00 0.0000000000000000e+00 0.0000000000000000e+00  1.0000001313520273e+00 0.0000000000000000e+00 0.0000000000000000e+00  1.0000001313520273e+00 0.0000000000000000e+00 0.0000000000000000e+00  1.0387511927628021e+00 -8.9487432842522176e-03 0.0000000000000000e+00  1.0358696917828865e+00 -1.8099004308364950e-02 0.0000000000000000e+00  1.0338628030984200e+00 -2.8097513658414550e-02 0.0000000000000000e+00  1.0285551974121603e+00 -3.8473197857283328e-02 0.0000000000000000e+00  1.0233296621665193e+00 -5.2569150662128181e-02 0.0000000000000000e+00  1.0277166118128338e+00 -5.5594407123771346e-02 0.0000000000000000e+00  1.0316367571853993e+00 -5.8668296676233363e-02 0.0000000000000000e+00  1.0365539971893887e+00 -6.1384039002897316e-02 0.0000000000000000e+00  1.0416594329587694e+00 -6.3922026332712129e-02 0.0000000000000000e+00  1.0473249237377875e+00 -6.5984231269565485e-02 0.0000000000000000e+00  1.0534886856659693e+00 -6.7670242441496289e-02 0.0000000000000000e+00  1.0599554741342647e+00 -6.8662320832961851e-02 0.0000000000000000e+00  1.0668354208179243e+00 -6.9071138418382236e-02 0.0000000000000000e+00  1.0736376705901864e+00 -6.8579613753607993e-02 0.0000000000000000e+00  1.0806003083247342e+00 -6.7476394428668943e-02 0.0000000000000000e+00  1.0873394838912898e+00 -6.5685694018504770e-02 0.0000000000000000e+00  1.0939721722958256e+00 -6.2873801149524691e-02 0.0000000000000000e+00  1.0999678304561038e+00 -5.9241263231378391e-02 0.0000000000000000e+00  1.1053767104505967e+00 -5.5159727980450553e-02 0.0000000000000000e+00  1.1100739029084583e+00 -5.0530135824353270e-02 0.0000000000000000e+00  1.1138932309224756e+00 -4.5561129767813360e-02 0.0000000000000000e+00  1.1167803387063038e+00 -4.0390571567751089e-02 0.0000000000000000e+00  1.1188859880854298e+00 -3.5358272181144249e-02 0.0000000000000000e+00  1.1201279886707249e+00 -3.0336336767445914e-02 0.0000000000000000e+00  1.1206597694575771e+00 -2.5989047811451910e-02 0.0000000000000000e+00  1.1205754006011284e+00 -2.1789098568223454e-02 0.0000000000000000e+00  1.1200254997338288e+00 -1.8249486063646129e-02 0.0000000000000000e+00  1.1193416146304322e+00 -1.5515516543443719e-02 0.0000000000000000e+00  1.1185838199147637e+00 -1.3465072971664790e-02 0.0000000000000000e+00  1.1179678342353105e+00 -1.2034746440192723e-02 0.0000000000000000e+00  1.1176957926692530e+00 -1.1002120768582832e-02 0.0000000000000000e+00  1.1179873153265951e+00 -1.0375644847347518e-02 0.0000000000000000e+00  1.1187628498400826e+00 -9.8605890005459412e-03 0.0000000000000000e+00  1.1202927749718350e+00 -9.2221530100904114e-03 0.0000000000000000e+00  1.1224417305704490e+00 -8.2903187039106534e-03 0.0000000000000000e+00  1.1251037591782767e+00 -6.7212957109353856