<?xml version="1.0"?>
<VTKFile type="UnstructuredGrid"  version="0.1"  >
<UnstructuredGrid>
<Piece  NumberOfPoints="10199" NumberOfCells="20110">
<Points>
<DataArray  type="Float64"  NumberOfComponents="3"  format="ascii">0 -5 0  8 -5 0  30 -5 0  40 -5 0  40 5 0  30 5 0  8 5 0  0 5 0  8 -2.5 0  15 -2.5 0  30 -2.5 0  30 2.5 0  15 2.5 0  8 2.5 0  10 0.5 0  10 -0.5 0  0 0 0  0.4210526315780956 -5 0  0.8421052631563433 -5 0  1.263157894734281 -5 0  1.684210526311999 -5 0  2.105263157889717 -5 0  2.526315789467435 -5 0  2.947368421045153 -5 0  3.368421052622872 -5 0  3.78947368420059 -5 0  4.210526315779479 -5 0  4.631578947359537 -5 0  5.052631578939595 -5 0  5.473684210519653 -5 0  5.89473684209971 -5 0  6.315789473679768 -5 0  6.736842105259826 -5 0  7.157894736839884 -5 0  7.578947368419942 -5 0  8.407407407405314 -5 0  8.814814814810628 -5 0  9.222222222215942 -5 0  9.629629629621256 -5 0  10.03703703702657 -5 0  10.44444444443188 -5 0  10.8518518518372 -5 0  11.25925925924251 -5 0  11.66666666664783 -5 0  12.07407407405314 -5 0  12.48148148145846 -5 0  12.88888888886377 -5 0  13.29629629626908 -5 0  13.7037037036744 -5 0  14.11111111107971 -5 0  14.51851851848502 -5 0  14.92592592589034 -5 0  15.33333333329565 -5 0  15.74074074070096 -5 0  16.14814814810754 -5 0  16.55555555551614 -5 0  16.96296296292474 -5 0  17.37037037033335 -5 0  17.77777777774195 -5 0  18.18518518515056 -5 0  18.59259259255916 -5 0  18.99999999996776 -5 0  19.40740740737636 -5 0  19.81481481478497 -5 0  20.22222222219357 -5 0  20.62962962960217 -5 0  21.03703703701077 -5 0  21.44444444441937 -5 0  21.85185185182797 -5 0  22.25925925923657 -5 0  22.66666666664518 -5 0  23.07407407405378 -5 0  23.48148148146238 -5 0  23.88888888887098 -5 0  24.29629629627958 -5 0  24.70370370368818 -5 0  25.11111111109678 -5 0  25.51851851850539 -5 0  25.92592592591399 -5 0  26.33333333332259 -5 0  26.74074074073119 -5 0  27.14814814813979 -5 0  27.55555555554839 -5 0  27.96296296295699 -5 0  28.3703703703656 -5 0  28.7777777777742 -5 0  29.1851851851828 -5 0  29.5925925925914 -5 0  30.41666666667852 -5 0  30.83333333335704 -5 0  31.25000000003556 -5 0  31.66666666671408 -5 0  32.08333333338936 -5 0  32.50000000005308 -5 0  32.9166666667168 -5 0  33.33333333338052 -5 0  33.75000000004424 -5 0  34.16666666670795 -5 0  34.58333333337167 -5 0  35.00000000003539 -5 0  35.41666666669911 -5 0  35.83333333336282 -5 0  36.25000000002654 -5 0  36.66666666669026 -5 0  37.08333333335398 -5 0  37.50000000001769 -5 0  37.91666666668141 -5 0  38.33333333334513 -5 0  38.75000000000885 -5 0  39.16666666667257 -5 0  39.58333333333628 -5 0  40 -4.583333333332821 0  40 -4.166666666665642 0  40 -3.74999999999855 0  40 -3.333333333333135 0  40 -2.916666666667806 0  40 -2.500000000002478 0  40 -2.083333333337148 0  40 -1.666666666671818 0  40 -1.250000000006488 0  40 -0.8333333333405228 0  40 -0.4166666666733416 0  40 -6.163070054299169e-12 0  40 0.4166666666610173 0  40 0.8333333333281976 0  40 1.249999999995378 0  40 1.666666666662558 0  40 2.083333333329739 0  40 2.499999999996919 0  40 2.916666666664099 0  40 3.33333333333128 0  40 3.74999999999846 0  40 4.166666666665641 0  40 4.583333333332821 0  39.58333333333628 5 0  39.16666666667256 5 0  38.75000000000885 5 0  38.33333333334513 5 0  37.91666666668141 5 0  37.50000000001769 5 0  37.08333333335398 5 0  36.66666666669025 5 0  36.25000000002654 5 0  35.83333333336282 5 0  35.41666666669911 5 0  35.00000000003539 5 0  34.58333333337167 5 0  34.16666666670795 5 0  33.75000000004424 5 0  33.33333333338052 5 0  32.9166666667168 5 0  32.50000000005308 5 0  32.08333333338936 5 0  31.66666666671408 5 0  31.25000000003556 5 0  30.83333333335704 5 0  30.41666666667852 5 0  29.59259259259259 5 0  29.18518518518519 5 0  28.77777777777778 5 0  28.37037037037037 5 0  27.96296296296296 5 0  27.55555555555556 5 0  27.14814814814815 5 0  26.74074074074074 5 0  26.33333333333333 5 0  25.92592592592593 5 0  25.51851851851852 5 0  25.11111111111111 5 0  24.7037037037037 5 0  24.2962962962963 5 0  23.88888888888889 5 0  23.48148148148148 5 0  23.07407407407408 5 0  22.66666666666667 5 0  22.25925925925926 5 0  21.85185185185185 5 0  21.44444444444445 5 0  21.03703703703704 5 0  20.62962962962963 5 0  20.22222222222222 5 0  19.81481481481482 5 0  19.40740740740741 5 0  19 5 0  18.5925925925926 5 0  18.18518518518519 5 0  17.77777777777778 5 0  17.37037037037037 5 0  16.96296296296296 5 0  16.55555555555556 5 0  16.14814814814815 5 0  15.74074074074074 5 0  15.33333333333333 5 0  14.92592592592593 5 0  14.51851851851852 5 0  14.11111111111111 5 0  13.70370370370371 5 0  13.2962962962963 5 0  12.88888888888889 5 0  12.48148148148148 5 0  12.07407407407408 5 0  11.66666666666667 5 0  11.25925925925926 5 0  10.85185185185185 5 0  10.44444444444445 5 0  10.03703703703704 5 0  9.629629629629633 5 0  9.222222222222221 5 0  8.814814814814817 5 0  8.407407407407408 5 0  7.5789473684193 5 0  7.157894736838599 5 0  6.73684210526082 5 0  6.315789473684795 5 0  5.894736842108769 5 0  5.473684210532742 5 0  5.052631578956715 5 0  4.631578947380689 5 0  4.210526315804662 5 0  3.789473684226299 5 0  3.368421052645599 5 0  2.947368421064898 5 0  2.526315789484198 5 0  2.105263157903499 5 0  1.6842105263228 5 0  1.2631578947421 5 0  0.8421052631613994 5 0  0.4210526315806993 5 0  0 4.545454545454545 0  0 4.09090909090909 0  0 3.636363636363634 0  0 3.18181818181818 0  0 2.727272727272726 0  0 2.272727272727271 0  0 1.818181818181817 0  0 1.363636363636363 0  0 0.9090909090909092 0  0 0.454545454545455 0  0 -0.4545454545450807 0  0 -0.9090909090895867 0  0 -1.363636363633713 0  0 -1.818181818177841 0  0 -2.272727272723127 0  0 -2.727272727269273 0  0 -3.181818181815419 0  0 -3.636363636361564 0  0 -4.090909090907709 0  0 -4.545454545453855 0  8 -4.499999999999999 0  8 -3.999999999999999 0  8 -3.499999999999999 0  8 -3 0  8.137254901963859 -2.5 0  8.274509803926303 -2.5 0  8.411764705886863 -2.5 0  8.549019607849138 -2.5 0  8.686274509809513 -2.5 0  8.82352941176989 -2.5 0  8.960784313730265 -2.5 0  9.098039215690642 -2.5 0  9.235294117651017 -2.5 0  9.372549019611395 -2.5 0  9.50980392157177 -2.5 0  9.647058823532147 -2.5 0  9.784313725492522 -2.5 0  9.921568627452897 -2.5 0  10.05882352941327 -2.5 0  10.19607843137365 -2.5 0  10.33333333333402 -2.5 0  10.4705882352944 -2.5 0  10.60784313725478 -2.5 0  10.74509803921515 -2.5 0  10.88235294117553 -2.5 0  11.0196078431359 -2.5 0  11.15686274509628 -2.5 0  11.29411764705665 -2.5 0  11.43137254901703 -2.5 0  11.56862745097915 -2.5 0  11.70588235294301 -2.5 0  11.84313725490686 -2.5 0  11.98039215687072 -2.5 0  12.11764705883209 -2.5 0  12.25490196079247 -2.5 0  12.39215686275285 -2.5 0  12.52941176471322 -2.5 0  12.6666666666736 -2.5 0  12.80392156863397 -2.5 0  12.94117647059435 -2.5 0  13.07843137255473 -2.5 0  13.2156862745151 -2.5 0  13.35294117647548 -2.5 0  13.49019607843586 -2.5 0  13.62745098039623 -2.5 0  13.76470588235661 -2.5 0  13.90196078431699 -2.5 0  14.03921568627736 -2.5 0  14.17647058823774 -2.5 0  14.31372549019812 -2.5 0  14.45098039215849 -2.5 0  14.58823529411887 -2.5 0  14.72549019607925 -2.5 0  14.86274509803962 -2.5 0  15.20270270270254 -2.5 0  15.40540540540509 -2.5 0  15.60810810810763 -2.5 0  15.81081081081017 -2.5 0  16.01351351351227 -2.5 0  16.21621621621265 -2.5 0  16.41891891891279 -2.5 0  16.62162162161294 -2.5 0  16.82432432431308 -2.5 0  17.02702702701322 -2.5 0  17.22972972971337 -2.5 0  17.43243243241351 -2.5 0  17.63513513511365 -2.5 0  17.83783783781379 -2.5 0  18.04054054051394 -2.5 0  18.24324324321408 -2.5 0  18.44594594591422 -2.5 0  18.64864864861436 -2.5 0  18.85135135131451 -2.5 0  19.05405405401465 -2.5 0  19.25675675671479 -2.5 0  19.45945945941494 -2.5 0  19.66216216211508 -2.5 0  19.86486486481522 -2.5 0  20.06756756751536 -2.5 0  20.27027027021551 -2.5 0  20.47297297291565 -2.5 0  20.6756756756158 -2.5 0  20.87837837831594 -2.5 0  21.08108108101608 -2.5 0  21.28378378371622 -2.5 0  21.48648648641637 -2.5 0  21.68918918911651 -2.5 0  21.89189189181666 -2.5 0  22.0945945945168 -2.5 0  22.29729729721694 -2.5 0  22.49999999991778 -2.5 0  22.70270270262203 -2.5 0  22.90540540532697 -2.5 0  23.10810810803191 -2.5 0  23.31081081073686 -2.5 0  23.5135135134418 -2.5 0  23.71621621614674 -2.5 0  23.91891891885169 -2.5 0  24.12162162155663 -2.5 0  24.32432432426158 -2.5 0  24.52702702696652 -2.5 0  24.72972972967146 -2.5 0  24.93243243237641 -2.5 0  25.13513513508135 -2.5 0  25.3378378377863 -2.5 0  25.54054054049124 -2.5 0  25.74324324319618 -2.5 0  25.94594594590112 -2.5 0  26.14864864860607 -2.5 0  26.35135135131101 -2.5 0  26.55405405401596 -2.5 0  26.7567567567209 -2.5 0  26.95945945942584 -2.5 0  27.16216216213079 -2.5 0  27.36486486483573 -2.5 0  27.56756756754068 -2.5 0  27.77027027024562 -2.5 0  27.97297297295056 -2.5 0  28.1756756756555 -2.5 0  28.37837837836045 -2.5 0  28.5810810810654 -2.5 0  28.78378378377034 -2.5 0  28.98648648647528 -2.5 0  29.18918918918023 -2.5 0  29.39189189188517 -2.5 0  29.59459459459011 -2.5 0  29.79729729729506 -2.5 0  30 -3.000000000000001 0  30 -3.500000000000001 0  30 -4.000000000000001 0  30 -4.5 0  8 4.499999999999999 0  8 3.999999999999999 0  8 3.499999999999999 0  8 3 0  8.137254901963859 2.5 0  8.274509803926303 2.5 0  8.411764705886863 2.5 0  8.549019607849138 2.5 0  8.686274509809513 2.5 0  8.82352941176989 2.5 0  8.960784313730265 2.5 0  9.098039215690642 2.5 0  9.235294117651017 2.5 0  9.372549019611395 2.5 0  9.50980392157177 2.5 0  9.647058823532147 2.5 0  9.784313725492522 2.5 0  9.921568627452897 2.5 0  10.05882352941327 2.5 0  10.19607843137365 2.5 0  10.33333333333402 2.5 0  10.4705882352944 2.5 0  10.60784313725478 2.5 0  10.74509803921515 2.5 0  10.88235294117553 2.5 0  11.0196078431359 2.5 0  11.15686274509628 2.5 0  11.29411764705665 2.5 0  11.43137254901703 2.5 0  11.56862745097915 2.5 0  11.70588235294301 2.5 0  11.84313725490686 2.5 0  11.98039215687072 2.5 0  12.11764705883209 2.5 0  12.25490196079247 2.5 0  1
[...]
<PointData  Vectors="f_17"> 
<DataArray  type="Float64"  Name="f_17"  NumberOfComponents="3" format="ascii">1.0000001329877817e+00 0.0000000000000000e+00 0.0000000000000000e+00  1.0493319784414534e+00 0.0000000000000000e+00 0.0000000000000000e+00  9.9600948434138981e-01 0.0000000000000000e+00 0.0000000000000000e+00  9.9804743433710574e-01 0.0000000000000000e+00 0.0000000000000000e+00  9.9813294826102261e-01 0.0000000000000000e+00 0.0000000000000000e+00  9.9627478365085542e-01 0.0000000000000000e+00 0.0000000000000000e+00  1.0487308147446623e+00 0.0000000000000000e+00 0.0000000000000000e+00  1.0000001329877817e+00 0.0000000000000000e+00 0.0000000000000000e+00  1.0222135690260377e+00 -6.0214715947925629e-02 0.0000000000000000e+00  1.1034179734172982e+00 7.1126675713372417e-02 0.0000000000000000e+00  1.0013375304922743e+00 3.6523623856601103e-04 0.0000000000000000e+00  1.0010263810031270e+00 -4.4698247942874617e-04 0.0000000000000000e+00  1.1029366694644480e+00 -7.0316316589589742e-02 0.0000000000000000e+00  1.0218530756640505e+00 6.0188799879314019e-02 0.0000000000000000e+00  0.0000000000000000e+00 0.0000000000000000e+00 0.0000000000000000e+00  0.0000000000000000e+00 0.0000000000000000e+00 0.0000000000000000e+00  1.0000001329877817e+00 0.0000000000000000e+00 0.0000000000000000e+00  9.9931167327544979e-01 0.0000000000000000e+00 0.0000000000000000e+00  9.9878833564059644e-01 0.0000000000000000e+00 0.0000000000000000e+00  1.0008358670363204e+00 0.0000000000000000e+00 0.0000000000000000e+00  1.0006921094912495e+00 0.0000000000000000e+00 0.0000000000000000e+00  1.0016893553716639e+00 0.0000000000000000e+00 0.0000000000000000e+00  1.0020624540567009e+00 0.0000000000000000e+00 0.0000000000000000e+00  1.0024207785083392e+00 0.0000000000000000e+00 0.0000000000000000e+00  1.0033246034150589e+00 0.0000000000000000e+00 0.0000000000000000e+00  1.0046626849767131e+00 0.0000000000000000e+00 0.0000000000000000e+00  1.0059425135126403e+00 0.0000000000000000e+00 0.0000000000000000e+00  1.0076322265648294e+00 0.0000000000000000e+00 0.0000000000000000e+00  1.0101232865368968e+00 0.0000000000000000e+00 0.0000000000000000e+00  1.0128279033928773e+00 0.0000000000000000e+00 0.0000000000000000e+00  1.0172515865655536e+00 0.0000000000000000e+00 0.0000000000000000e+00  1.0196071311371724e+00 0.0000000000000000e+00 0.0000000000000000e+00  1.0250228886605774e+00 0.0000000000000000e+00 0.0000000000000000e+00  1.0327920563558544e+00 0.0000000000000000e+00 0.0000000000000000e+00  1.0395529102118342e+00 0.0000000000000000e+00 0.0000000000000000e+00  1.0594800851542205e+00 0.0000000000000000e+00 0.0000000000000000e+00  1.0705099659115607e+00 0.0000000000000000e+00 0.0000000000000000e+00  1.0814860576207446e+00 0.0000000000000000e+00 0.0000000000000000e+00  1.0934879736478531e+00 0.0000000000000000e+00 0.0000000000000000e+00  1.1042668261383164e+00 0.0000000000000000e+00 0.0000000000000000e+00  1.1145913567774464e+00 0.0000000000000000e+00 0.0000000000000000e+00  1.1243921688435052e+00 0.0000000000000000e+00 0.0000000000000000e+00  1.1311983358523523e+00 0.0000000000000000e+00 0.0000000000000000e+00  1.1365336273350670e+00 0.0000000000000000e+00 0.0000000000000000e+00  1.1392872990410001e+00 0.0000000000000000e+00 0.0000000000000000e+00  1.1399504598752594e+00 0.0000000000000000e+00 0.0000000000000000e+00  1.1372999241224266e+00 0.0000000000000000e+00 0.0000000000000000e+00  1.1336162772688272e+00 0.0000000000000000e+00 0.0000000000000000e+00  1.1276096417670476e+00 0.0000000000000000e+00 0.0000000000000000e+00  1.1202290408178364e+00 0.0000000000000000e+00 0.0000000000000000e+00  1.1122024804709041e+00 0.0000000000000000e+00 0.0000000000000000e+00  1.1032761822693689e+00 0.0000000000000000e+00 0.0000000000000000e+00  1.0942803326516910e+00 0.0000000000000000e+00 0.0000000000000000e+00  1.0848043689363718e+00 0.0000000000000000e+00 0.0000000000000000e+00  1.0754029788416672e+00 0.0000000000000000e+00 0.0000000000000000e+00  1.0672775105001051e+00 0.0000000000000000e+00 0.0000000000000000e+00  1.0601752090996281e+00 0.0000000000000000e+00 0.0000000000000000e+00  1.0523148686988657e+00 0.0000000000000000e+00 0.0000000000000000e+00  1.0459495655866236e+00 0.0000000000000000e+00 0.0000000000000000e+00  1.0401042393602351e+00 0.0000000000000000e+00 0.0000000000000000e+00  1.0348147199991249e+00 0.0000000000000000e+00 0.0000000000000000e+00  1.0305258081166788e+00 0.0000000000000000e+00 0.0000000000000000e+00  1.0264397978674313e+00 0.0000000000000000e+00 0.0000000000000000e+00  1.0228345979702564e+00 0.0000000000000000e+00 0.0000000000000000e+00  1.0200283698837762e+00 0.0000000000000000e+00 0.0000000000000000e+00  1.0168226595037120e+00 0.0000000000000000e+00 0.0000000000000000e+00  1.0137429107096823e+00 0.0000000000000000e+00 0.0000000000000000e+00  1.0124344023982184e+00 0.0000000000000000e+00 0.0000000000000000e+00  1.0102499816971948e+00 0.0000000000000000e+00 0.0000000000000000e+00  1.0080714747405692e+00 0.0000000000000000e+00 0.0000000000000000e+00  1.0070011661025311e+00 0.0000000000000000e+00 0.0000000000000000e+00  1.0051768382345503e+00 0.0000000000000000e+00 0.0000000000000000e+00  1.0033176564044344e+00 0.0000000000000000e+00 0.0000000000000000e+00  1.0030237009658218e+00 0.0000000000000000e+00 0.0000000000000000e+00  1.0018928129263740e+00 0.0000000000000000e+00 0.0000000000000000e+00  1.0007608476353111e+00 0.0000000000000000e+00 0.0000000000000000e+00  1.0004871902130963e+00 0.0000000000000000e+00 0.0000000000000000e+00  9.9959748105882995e-01 0.0000000000000000e+00 0.0000000000000000e+00  9.9880042073631314e-01 0.0000000000000000e+00 0.0000000000000000e+00  9.9873124028036608e-01 0.0000000000000000e+00 0.0000000000000000e+00  9.9784427017810806e-01 0.0000000000000000e+00 0.0000000000000000e+00  9.9679321750710947e-01 0.0000000000000000e+00 0.0000000000000000e+00  9.9818471858572133e-01 0.0000000000000000e+00 0.0000000000000000e+00  9.9768562209200873e-01 0.0000000000000000e+00 0.0000000000000000e+00  9.9571635353783650e-01 0.0000000000000000e+00 0.0000000000000000e+00  9.9484276517096548e-01 0.0000000000000000e+00 0.0000000000000000e+00  9.9565337871479787e-01 0.0000000000000000e+00 0.0000000000000000e+00  9.9558798251937020e-01 0.0000000000000000e+00 0.0000000000000000e+00  9.9614829429339447e-01 0.0000000000000000e+00 0.0000000000000000e+00  9.9557379090515619e-01 0.0000000000000000e+00 0.0000000000000000e+00  9.9500244365170731e-01 0.0000000000000000e+00 0.0000000000000000e+00  9.9532007864753402e-01 0.0000000000000000e+00 0.0000000000000000e+00  9.9565738024169470e-01 0.0000000000000000e+00 0.0000000000000000e+00  9.9559533250869869e-01 0.0000000000000000e+00 0.0000000000000000e+00  9.9557450068541176e-01 0.0000000000000000e+00 0.0000000000000000e+00  9.9582608211610479e-01 0.0000000000000000e+00 0.0000000000000000e+00  9.9609401933882480e-01 0.0000000000000000e+00 0.0000000000000000e+00  9.9589959979717735e-01 0.0000000000000000e+00 0.0000000000000000e+00  9.9621234757926080e-01 0.0000000000000000e+00 0.0000000000000000e+00  9.9630987027369355e-01 0.0000000000000000e+00 0.0000000000000000e+00  9.9612236775542029e-01 0.0000000000000000e+00 0.0000000000000000e+00  9.9642098151481229e-01 0.0000000000000000e+00 0.0000000000000000e+00  9.9660377012670698e-01 0.0000000000000000e+00 0.0000000000000000e+00  9.9727760420730216e-01 0.0000000000000000e+00 0.0000000000000000e+00  9.9699039506257325e-01 0.0000000000000000e+00 0.0000000000000000e+00  9.9721331942424474e-01 0.0000000000000000e+00 0.0000000000000000e+00  9.9710857419908927e-01 0.0000000000000000e+00 0.0000000000000000e+00  9.9765423708015866e-01 0.0000000000000000e+00 0.0000000000000000e+00  9.9755268794182661e-01 0.0000000000000000e+00 0.0000000000000000e+00  9.9803099647332738e-01 0.0000000000000000e+00 0.0000000000000000e+00  9.9763356275133974e-01 0.0000000000000000e+00 0.0000000000000000e+00  9.9844670156515192e-01 -4.9978564399109298e-05 0.0000000000000000e+00  9.9907338883595453e-01 -2.0528894271326686e-04 0.0000000000000000e+00  1.0003079822838450e+00 -2.6759899779581827e-04 0.0000000000000000e+00  1.0003656776649235e+00 -2.2368330565604233e-04 0.0000000000000000e+00  1.0010583413346485e+00 -2.6539546639917007e-04 0.0000000000000000e+00  1.0007290065359125e+00 -2.0023429894765586e-04 0.0000000000000000e+00  1.0004671831682763e+00 -1.4215815960722257e-04 0.0000000000000000e+00  1.0007165446024766e+00 -9.9227707613144624e-05 0.0000000000000000e+00  1.0004661772252006e+00 -9.4675289044682731e-05 0.0000000000000000e+00  1.0005412849618329e+00 7.7669182631746184e-05 0.0000000000000000e+00  1.0018188829892760e+00 -5.1988982139701849e-04 0.0000000000000000e+00  1.0020997417493058e+00 -3.3929087984450944e-04 0.0000000000000000e+00  1.0007262069346690e+00 -5.1867561404757767e-04 0.0000000000000000e+00  9.9961325436788706e-01 -3.8973639639755184e-04 0.0000000000000000e+00  1.0004460367206098e+00 1.8831092081374041e-04 0.0000000000000000e+00  1.0012389284735126e+00 5.1472965296131762e-04 0.0000000000000000e+00  1.0002737178065195e+00 -7.7857011537377031e-06 0.0000000000000000e+00  9.9981702335111367e-01 9.8877491399147280e-05 0.0000000000000000e+00  9.9916751958743222e-01 2.3825241535595638e-04 0.0000000000000000e+00  9.9948502268513006e-01 2.3145093473278444e-04 0.0000000000000000e+00  9.9899969259619015e-01 2.3754094280925515e-04 0.0000000000000000e+00  9.9914948517606961e-01 1.6514209147193011e-04 0.0000000000000000e+00  9.9866550301559243e-01 2.5751190295596102e-05 0.0000000000000000e+00  9.9787282660920018e-01 0.0000000000000000e+00 0.0000000000000000e+00  9.9773713216064008e-01 0.0000000000000000e+00 0.0000000000000000e+00  9.9759465830724148e-01 0.0000000000000000e+00 0.0000000000000000e+00  9.9776088574767541e-01 0.0000000000000000e+00 0.0000000000000000e+00  9.9728663211753610e-01 0.0000000000000000e+00 0.0000000000000000e+00  9.9729086675470147e-01 0.0000000000000000e+00 0.0000000000000000e+00  9.9747278988564658e-01 0.0000000000000000e+00 0.0000000000000000e+00  9.9774313262170577e-01 0.0000000000000000e+00 0.0000000000000000e+00  9.9733047935922314e-01 0.0000000000000000e+00 0.0000000000000000e+00  9.9722757526240968e-01 0.0000000000000000e+00 0.0000000000000000e+00  9.9700325537729995e-01 0.0000000000000000e+00 0.0000000000000000e+00  9.9666601789001086e-01 0.0000000000000000e+00 0.0000000000000000e+00  9.9640862870830560e-01 0.0000000000000000e+00 0.0000000000000000e+00  9.9684765879239323e-01 0.0000000000000000e+00 0.0000000000000000e+00  9.9652071073007342e-01 0.0000000000000000e+00 0.0000000000000000e+00  9.9714688160842180e-01 0.0000000000000000e+00 0.0000000000000000e+00  9.9648428450402404e-01 0.0000000000000000e+00 0.0000000000000000e+00  9.9635384269487148e-01 0.0000000000000000e+00 0.0000000000000000e+00  9.9596205441651897e-01 0.0000000000000000e+00 0.0000000000000000e+00  9.9617863482584768e-01 0.0000000000000000e+00 0.0000000000000000e+00  9.9618827596523551e-01 0.0000000000000000e+00 0.0000000000000000e+00  9.9586712961319956e-01 0.0000000000000000e+00 0.0000000000000000e+00  9.9615195138421075e-01 0.0000000000000000e+00 0.0000000000000000e+00  9.9576153972229919e-01 0.0000000000000000e+00 0.0000000000000000e+00  9.9600279314920792e-01 0.0000000000000000e+00 0.0000000000000000e+00  9.9520173941447210e-01 0.0000000000000000e+00 0.0000000000000000e+00  9.9596522061619597e-01 0.0000000000000000e+00 0.0000000000000000e+00  9.9754871216762686e-01 0.0000000000000000e+00 0.0000000000000000e+00  9.9803352165148707e-01 0.0000000000000000e+00 0.0000000000000000e+00  9.9674546991869206e-01 0.0000000000000000e+00 0.0000000000000000e+00  9.9766873441558013e-01 0.0000000000000000e+00 0.0000000000000000e+00  9.9854732543472868e-01 0.0000000000000000e+00 0.0000000000000000e+00  9.9866816787623736e-01 0.0000000000000000e+00 0.0000000000000000e+00  9.9946549794084483e-01 0.0000000000000000e+00 0.0000000000000000e+00  1.0003530716314080e+00 0.0000000000000000e+00 0.0000000000000000e+00  1.0006239390186287e+00 0.0000000000000000e+00 0.0000000000000000e+00  1.0017484333845486e+00 0.0000000000000000e+00 0.0000000000000000e+00  1.0028768733642388e+00 0.0000000000000000e+00 0.0000000000000000e+00  1.0032591862325932e+00 0.0000000000000000e+00 0.0000000000000000e+00  1.0049900441871873e+00 0.0000000000000000e+00 0.0000000000000000e+00  1.0067753637802421e+00 0.0000000000000000e+00 0.0000000000000000e+00  1.0078197757272094e+00 0.0000000000000000e+00 0.0000000000000000e+00  1.0099688814780399e+00 0.0000000000000000e+00 0.0000000000000000e+00  1.0121676595958264e+00 0.0000000000000000e+00 0.0000000000000000e+00  1.0134975173039242e+00 0.0000000000000000e+00 0.0000000000000000e+00  1.0165900761823907e+00 0.0000000000000000e+00 0.0000000000000000e+00  1.0198160745517875e+00 0.0000000000000000e+00 0.0000000000000000e+00  1.0226396794839157e+00 0.0000000000000000e+00 0.0000000000000000e+00  1.0262763210123436e+00 0.0000000000000000e+00 0.0000000000000000e+00  1.0303143208084162e+00 0.0000000000000000e+00 0.0000000000000000e+00  1.0345769622660144e+00 0.0000000000000000e+00 0.0000000000000000e+00  1.0397228792783977e+00 0.0000000000000000e+00 0.0000000000000000e+00  1.0455122568279385e+00 0.0000000000000000e+00 0.0000000000000000e+00  1.0517216957341098e+00 0.0000000000000000e+00 0.0000000000000000e+00  1.0593803876716092e+00 0.0000000000000000e+00 0.0000000000000000e+00  1.0664396250950419e+00 0.0000000000000000e+00 0.0000000000000000e+00  1.0746157656034665e+00 0.0000000000000000e+00 0.0000000000000000e+00  1.0837853330809708e+00 0.0000000000000000e+00 0.0000000000000000e+00  1.0932310938564052e+00 0.0000000000000000e+00 0.0000000000000000e+00  1.1021147757068399e+00 0.0000000000000000e+00 0.0000000000000000e+00  1.1104890489833368e+00 0.0000000000000000e+00 0.0000000000000000e+00  1.1184936402290133e+00 0.0000000000000000e+00 0.0000000000000000e+00  1.1263263912876371e+00 0.0000000000000000e+00 0.0000000000000000e+00  1.1322286703768289e+00 0.0000000000000000e+00 0.0000000000000000e+00  1.1358934536916119e+00 0.0000000000000000e+00 0.0000000000000000e+00  1.1390176254299995e+00 0.0000000000000000e+00 0.0000000000000000e+00  1.1382174407703725e+00 0.0000000000000000e+00 0.0000000000000000e+00  1.1358982810606633e+00 0.0000000000000000e+00 0.0000000000000000e+00  1.1308970564837777e+00 0.0000000000000000e+00 0.0000000000000000e+00  1.1232247957243269e+00 0.0000000000000000e+00 0.0000000000000000e+00  1.1139232950649649e+00 0.0000000000000000e+00 0.0000000000000000e+00  1.1036019743906715e+00 0.0000000000000000e+00 0.0000000000000000e+00  1.0926088896904480e+00 0.0000000000000000e+00 0.0000000000000000e+00  1.0804950175456502e+00 0.0000000000000000e+00 0.0000000000000000e+00  1.0697450060294356e+00 0.0000000000000000e+00 0.0000000000000000e+00  1.0587914933029010e+00 0.0000000000000000e+00 0.0000000000000000e+00  1.0392077299568623e+00 0.0000000000000000e+00 0.0000000000000000e+00  1.0311294761354302e+00 0.0000000000000000e+00 0.0000000000000000e+00  1.0248388806172233e+00 0.0000000000000000e+00 0.0000000000000000e+00  1.0191922204545876e+00 0.0000000000000000e+00 0.0000000000000000e+00  1.0147164716079193e+00 0.0000000000000000e+00 0.0000000000000000e+00  1.0111831120262464e+00 0.0000000000000000e+00 0.0000000000000000e+00  1.0084670868176229e+00 0.0000000000000000e+00 0.0000000000000000e+00  1.0059505030629006e+00 0.0000000000000000e+00 0.0000000000000000e+00  1.0041916620786300e+00 0.0000000000000000e+00 0.0000000000000000e+00  1.0029765727956697e+00 0.0000000000000000e+00 0.0000000000000000e+00  1.0016388099776183e+00 0.0000000000000000e+00 0.0000000000000000e+00  1.0013963950278639e+00 0.0000000000000000e+00 0.0000000000000000e+00  1.0002901776095618e+00 0.0000000000000000e+00 0.0000000000000000e+00  1.0002371580945471e+00 0.0000000000000000e+00 0.0000000000000000e+00  9.9981298756342740e-01 0.0000000000000000e+00 0.0000000000000000e+00  1.0005059108679215e+00 0.0000000000000000e+00 0.0000000000000000e+00  1.0002544406737961e+00 0.0000000000000000e+00 0.0000000000000000e+00  9.9979645178708654e-01 0.0000000000000000e+00 0.0000000000000000e+00  1.0000001329877817e+00 0.0000000000000000e+00 0.0000000000000000e+00  1.0000001329877817e+00 0.0000000000000000e+00 0.0000000000000000e+00  1.0000001329877817e+00 0.0000000000000000e+00 0.0000000000000000e+00  1.0000001329877817e+00 0.0000000000000000e+00 0.0000000000000000e+00  1.0000001329877817e+00 0.0000000000000000e+00 0.0000000000000000e+00  1.0000001329877817e+00 0.0000000000000000e+00 0.0000000000000000e+00  1.0000001329877817e+00 0.0000000000000000e+00 0.0000000000000000e+00  1.0000001329877817e+00 0.0000000000000000e+00 0.0000000000000000e+00  1.0000001329877817e+00 0.0000000000000000e+00 0.0000000000000000e+00  1.0000001329877817e+00 0.0000000000000000e+00 0.0000000000000000e+00  1.0000001329877817e+00 0.0000000000000000e+00 0.0000000000000000e+00  1.0000001329877817e+00 0.0000000000000000e+00 0.0000000000000000e+00  1.0000001329877817e+00 0.0000000000000000e+00 0.0000000000000000e+00  1.0000001329877817e+00 0.0000000000000000e+00 0.0000000000000000e+00  1.0000001329877817e+00 0.0000000000000000e+00 0.0000000000000000e+00  1.0000001329877817e+00 0.0000000000000000e+00 0.0000000000000000e+00  1.0000001329877817e+00 0.0000000000000000e+00 0.0000000000000000e+00  1.0000001329877817e+00 0.0000000000000000e+00 0.0000000000000000e+00  1.0000001329877817e+00 0.0000000000000000e+00 0.0000000000000000e+00  1.0000001329877817e+00 0.0000000000000000e+00 0.0000000000000000e+00  1.0484776429467564e+00 -1.1771497467881767e-02 0.0000000000000000e+00  1.0445954839855021e+00 -2.3573581740389805e-02 0.0000000000000000e+00  1.0408667639662235e+00 -3.5741920657511882e-02 0.0000000000000000e+00  1.0331605087417131e+00 -4.8164136104046698e-02 0.0000000000000000e+00  1.0249972216316414e+00 -6.4748748594948502e-02 0.0000000000000000e+00  1.0296610350027438e+00 -6.8938961073694197e-02 0.0000000000000000e+00  1.0339050192394590e+00 -7.3268118180962724e-02 0.0000000000000000e+00  1.0392304724262054e+00 -7.7357730568220484e-02 0.0000000000000000e+00  1.0448536861272621e+00 -8.1366132087247370e-02 0.0000000000000000e+00  1.0511467610915246e+00 -8.5042598747366679e-02 0.0000000000000000e+00  1.0580687439968794e+00 -8.8435778416651456e-02 0.0000000000000000e+00  1.0655128576507100e+00 -9.1239046312476119e-02 0.0000000000000000e+00  1.0735154453954183e+00 -9.3599960944031446e-02 0.0000000000000000e+00  1.0817410174154309e+00 -9.5157815870392390e-02 0.0000000000000000e+00  1.0903743558888201e+00 -9.6150358180800158e-02 0.0000000000000000e+00  1.0991775691683701e+00 -9.6426954080307950e-02 0.0000000000000000e+00  1.1081490848287197e+00 -9.5736697989792674e-02 0.0000000000000000e+00  1.1168888027269139e+00 -9.4206908158514652e-02 0.0000000000000000e+00  1.1255030314286838e+00 -9.2007469222056298e-02 0.0000000000000000e+00  1.1338374299911878e+00 -8.9056336271324130e-02 0.0000000000000000e+00  1.1416771519575000e+00 -8.5363002626294024e-02 0.0000000000000000e+00  1.1490938731931613e+00 -8.1103033309011877e-02 0.0000000000000000e+00  1.1559182015771394e+00 -7.6342251790141910e-02 0.0000000000000000e+00  1.1622271693624524e+00 -7.1016545166740080e-02 0.0000000000000000e+00  1.1679453760258256e+00 -6.5495612129928535e-02 0.0000000000000000e+00  1.1730989684598891e+00 -5.9579761353485243e-02 0.0000000000000000e+00  1.1775366417410891e+00 -5.3361443530063640e-02 0.0000000000000000e+00  1.1815310893772866e+00 -4.7017800115805551e-02 0.0000000000000000e+00  1.1848129034136556e+00 -4.0561759151436928e-02 0.0000000000000000e+00  1.1875652612662944e+00 -3.3979149735205216e-02 0.0000000000000000e+00  1.1897048045743657e+00 -2.7336175866732090e-02 0.0000000000000000e+00  1.1912442258809648e+00 -2.0725309855373509e-02 0.0000000000000000e+00  1.1922685347627133e+00 -1.4014704231685934e-02 0.0000000000000000e+00  1.1926821335671303e+00 -7.2864505200796667e-03 0.0000000000000000e+00  1.1925564536158755e+00 -6.3583331025085553e-04 0.0000000000000000e+00  1.1918709963631660e+00 5.92954