<?xml version="1.0"?>
<VTKFile type="UnstructuredGrid"  version="0.1"  >
<UnstructuredGrid>
<Piece  NumberOfPoints="10199" NumberOfCells="20110">
<Points>
<DataArray  type="Float64"  NumberOfComponents="3"  format="ascii">0 -5 0  8 -5 0  30 -5 0  40 -5 0  40 5 0  30 5 0  8 5 0  0 5 0  8 -2.5 0  15 -2.5 0  30 -2.5 0  30 2.5 0  15 2.5 0  8 2.5 0  10 0.5 0  10 -0.5 0  0 0 0  0.4210526315780956 -5 0  0.8421052631563433 -5 0  1.263157894734281 -5 0  1.684210526311999 -5 0  2.105263157889717 -5 0  2.526315789467435 -5 0  2.947368421045153 -5 0  3.368421052622872 -5 0  3.78947368420059 -5 0  4.210526315779479 -5 0  4.631578947359537 -5 0  5.052631578939595 -5 0  5.473684210519653 -5 0  5.89473684209971 -5 0  6.315789473679768 -5 0  6.736842105259826 -5 0  7.157894736839884 -5 0  7.578947368419942 -5 0  8.407407407405314 -5 0  8.814814814810628 -5 0  9.222222222215942 -5 0  9.629629629621256 -5 0  10.03703703702657 -5 0  10.44444444443188 -5 0  10.8518518518372 -5 0  11.25925925924251 -5 0  11.66666666664783 -5 0  12.07407407405314 -5 0  12.48148148145846 -5 0  12.88888888886377 -5 0  13.29629629626908 -5 0  13.7037037036744 -5 0  14.11111111107971 -5 0  14.51851851848502 -5 0  14.92592592589034 -5 0  15.33333333329565 -5 0  15.74074074070096 -5 0  16.14814814810754 -5 0  16.55555555551614 -5 0  16.96296296292474 -5 0  17.37037037033335 -5 0  17.77777777774195 -5 0  18.18518518515056 -5 0  18.59259259255916 -5 0  18.99999999996776 -5 0  19.40740740737636 -5 0  19.81481481478497 -5 0  20.22222222219357 -5 0  20.62962962960217 -5 0  21.03703703701077 -5 0  21.44444444441937 -5 0  21.85185185182797 -5 0  22.25925925923657 -5 0  22.66666666664518 -5 0  23.07407407405378 -5 0  23.48148148146238 -5 0  23.88888888887098 -5 0  24.29629629627958 -5 0  24.70370370368818 -5 0  25.11111111109678 -5 0  25.51851851850539 -5 0  25.92592592591399 -5 0  26.33333333332259 -5 0  26.74074074073119 -5 0  27.14814814813979 -5 0  27.55555555554839 -5 0  27.96296296295699 -5 0  28.3703703703656 -5 0  28.7777777777742 -5 0  29.1851851851828 -5 0  29.5925925925914 -5 0  30.41666666667852 -5 0  30.83333333335704 -5 0  31.25000000003556 -5 0  31.66666666671408 -5 0  32.08333333338936 -5 0  32.50000000005308 -5 0  32.9166666667168 -5 0  33.33333333338052 -5 0  33.75000000004424 -5 0  34.16666666670795 -5 0  34.58333333337167 -5 0  35.00000000003539 -5 0  35.41666666669911 -5 0  35.83333333336282 -5 0  36.25000000002654 -5 0  36.66666666669026 -5 0  37.08333333335398 -5 0  37.50000000001769 -5 0  37.91666666668141 -5 0  38.33333333334513 -5 0  38.75000000000885 -5 0  39.16666666667257 -5 0  39.58333333333628 -5 0  40 -4.583333333332821 0  40 -4.166666666665642 0  40 -3.74999999999855 0  40 -3.333333333333135 0  40 -2.916666666667806 0  40 -2.500000000002478 0  40 -2.083333333337148 0  40 -1.666666666671818 0  40 -1.250000000006488 0  40 -0.8333333333405228 0  40 -0.4166666666733416 0  40 -6.163070054299169e-12 0  40 0.4166666666610173 0  40 0.8333333333281976 0  40 1.249999999995378 0  40 1.666666666662558 0  40 2.083333333329739 0  40 2.499999999996919 0  40 2.916666666664099 0  40 3.33333333333128 0  40 3.74999999999846 0  40 4.166666666665641 0  40 4.583333333332821 0  39.58333333333628 5 0  39.16666666667256 5 0  38.75000000000885 5 0  38.33333333334513 5 0  37.91666666668141 5 0  37.50000000001769 5 0  37.08333333335398 5 0  36.66666666669025 5 0  36.25000000002654 5 0  35.83333333336282 5 0  35.41666666669911 5 0  35.00000000003539 5 0  34.58333333337167 5 0  34.16666666670795 5 0  33.75000000004424 5 0  33.33333333338052 5 0  32.9166666667168 5 0  32.50000000005308 5 0  32.08333333338936 5 0  31.66666666671408 5 0  31.25000000003556 5 0  30.83333333335704 5 0  30.41666666667852 5 0  29.59259259259259 5 0  29.18518518518519 5 0  28.77777777777778 5 0  28.37037037037037 5 0  27.96296296296296 5 0  27.55555555555556 5 0  27.14814814814815 5 0  26.74074074074074 5 0  26.33333333333333 5 0  25.92592592592593 5 0  25.51851851851852 5 0  25.11111111111111 5 0  24.7037037037037 5 0  24.2962962962963 5 0  23.88888888888889 5 0  23.48148148148148 5 0  23.07407407407408 5 0  22.66666666666667 5 0  22.25925925925926 5 0  21.85185185185185 5 0  21.44444444444445 5 0  21.03703703703704 5 0  20.62962962962963 5 0  20.22222222222222 5 0  19.81481481481482 5 0  19.40740740740741 5 0  19 5 0  18.5925925925926 5 0  18.18518518518519 5 0  17.77777777777778 5 0  17.37037037037037 5 0  16.96296296296296 5 0  16.55555555555556 5 0  16.14814814814815 5 0  15.74074074074074 5 0  15.33333333333333 5 0  14.92592592592593 5 0  14.51851851851852 5 0  14.11111111111111 5 0  13.70370370370371 5 0  13.2962962962963 5 0  12.88888888888889 5 0  12.48148148148148 5 0  12.07407407407408 5 0  11.66666666666667 5 0  11.25925925925926 5 0  10.85185185185185 5 0  10.44444444444445 5 0  10.03703703703704 5 0  9.629629629629633 5 0  9.222222222222221 5 0  8.814814814814817 5 0  8.407407407407408 5 0  7.5789473684193 5 0  7.157894736838599 5 0  6.73684210526082 5 0  6.315789473684795 5 0  5.894736842108769 5 0  5.473684210532742 5 0  5.052631578956715 5 0  4.631578947380689 5 0  4.210526315804662 5 0  3.789473684226299 5 0  3.368421052645599 5 0  2.947368421064898 5 0  2.526315789484198 5 0  2.105263157903499 5 0  1.6842105263228 5 0  1.2631578947421 5 0  0.8421052631613994 5 0  0.4210526315806993 5 0  0 4.545454545454545 0  0 4.09090909090909 0  0 3.636363636363634 0  0 3.18181818181818 0  0 2.727272727272726 0  0 2.272727272727271 0  0 1.818181818181817 0  0 1.363636363636363 0  0 0.9090909090909092 0  0 0.454545454545455 0  0 -0.4545454545450807 0  0 -0.9090909090895867 0  0 -1.363636363633713 0  0 -1.818181818177841 0  0 -2.272727272723127 0  0 -2.727272727269273 0  0 -3.181818181815419 0  0 -3.636363636361564 0  0 -4.090909090907709 0  0 -4.545454545453855 0  8 -4.499999999999999 0  8 -3.999999999999999 0  8 -3.499999999999999 0  8 -3 0  8.137254901963859 -2.5 0  8.274509803926303 -2.5 0  8.411764705886863 -2.5 0  8.549019607849138 -2.5 0  8.686274509809513 -2.5 0  8.82352941176989 -2.5 0  8.960784313730265 -2.5 0  9.098039215690642 -2.5 0  9.235294117651017 -2.5 0  9.372549019611395 -2.5 0  9.50980392157177 -2.5 0  9.647058823532147 -2.5 0  9.784313725492522 -2.5 0  9.921568627452897 -2.5 0  10.05882352941327 -2.5 0  10.19607843137365 -2.5 0  10.33333333333402 -2.5 0  10.4705882352944 -2.5 0  10.60784313725478 -2.5 0  10.74509803921515 -2.5 0  10.88235294117553 -2.5 0  11.0196078431359 -2.5 0  11.15686274509628 -2.5 0  11.29411764705665 -2.5 0  11.43137254901703 -2.5 0  11.56862745097915 -2.5 0  11.70588235294301 -2.5 0  11.84313725490686 -2.5 0  11.98039215687072 -2.5 0  12.11764705883209 -2.5 0  12.25490196079247 -2.5 0  12.39215686275285 -2.5 0  12.52941176471322 -2.5 0  12.6666666666736 -2.5 0  12.80392156863397 -2.5 0  12.94117647059435 -2.5 0  13.07843137255473 -2.5 0  13.2156862745151 -2.5 0  13.35294117647548 -2.5 0  13.49019607843586 -2.5 0  13.62745098039623 -2.5 0  13.76470588235661 -2.5 0  13.90196078431699 -2.5 0  14.03921568627736 -2.5 0  14.17647058823774 -2.5 0  14.31372549019812 -2.5 0  14.45098039215849 -2.5 0  14.58823529411887 -2.5 0  14.72549019607925 -2.5 0  14.86274509803962 -2.5 0  15.20270270270254 -2.5 0  15.40540540540509 -2.5 0  15.60810810810763 -2.5 0  15.81081081081017 -2.5 0  16.01351351351227 -2.5 0  16.21621621621265 -2.5 0  16.41891891891279 -2.5 0  16.62162162161294 -2.5 0  16.82432432431308 -2.5 0  17.02702702701322 -2.5 0  17.22972972971337 -2.5 0  17.43243243241351 -2.5 0  17.63513513511365 -2.5 0  17.83783783781379 -2.5 0  18.04054054051394 -2.5 0  18.24324324321408 -2.5 0  18.44594594591422 -2.5 0  18.64864864861436 -2.5 0  18.85135135131451 -2.5 0  19.05405405401465 -2.5 0  19.25675675671479 -2.5 0  19.45945945941494 -2.5 0  19.66216216211508 -2.5 0  19.86486486481522 -2.5 0  20.06756756751536 -2.5 0  20.27027027021551 -2.5 0  20.47297297291565 -2.5 0  20.6756756756158 -2.5 0  20.87837837831594 -2.5 0  21.08108108101608 -2.5 0  21.28378378371622 -2.5 0  21.48648648641637 -2.5 0  21.68918918911651 -2.5 0  21.89189189181666 -2.5 0  22.0945945945168 -2.5 0  22.29729729721694 -2.5 0  22.49999999991778 -2.5 0  22.70270270262203 -2.5 0  22.90540540532697 -2.5 0  23.10810810803191 -2.5 0  23.31081081073686 -2.5 0  23.5135135134418 -2.5 0  23.71621621614674 -2.5 0  23.91891891885169 -2.5 0  24.12162162155663 -2.5 0  24.32432432426158 -2.5 0  24.52702702696652 -2.5 0  24.72972972967146 -2.5 0  24.93243243237641 -2.5 0  25.13513513508135 -2.5 0  25.3378378377863 -2.5 0  25.54054054049124 -2.5 0  25.74324324319618 -2.5 0  25.94594594590112 -2.5 0  26.14864864860607 -2.5 0  26.35135135131101 -2.5 0  26.55405405401596 -2.5 0  26.7567567567209 -2.5 0  26.95945945942584 -2.5 0  27.16216216213079 -2.5 0  27.36486486483573 -2.5 0  27.56756756754068 -2.5 0  27.77027027024562 -2.5 0  27.97297297295056 -2.5 0  28.1756756756555 -2.5 0  28.37837837836045 -2.5 0  28.5810810810654 -2.5 0  28.78378378377034 -2.5 0  28.98648648647528 -2.5 0  29.18918918918023 -2.5 0  29.39189189188517 -2.5 0  29.59459459459011 -2.5 0  29.79729729729506 -2.5 0  30 -3.000000000000001 0  30 -3.500000000000001 0  30 -4.000000000000001 0  30 -4.5 0  8 4.499999999999999 0  8 3.999999999999999 0  8 3.499999999999999 0  8 3 0  8.137254901963859 2.5 0  8.274509803926303 2.5 0  8.411764705886863 2.5 0  8.549019607849138 2.5 0  8.686274509809513 2.5 0  8.82352941176989 2.5 0  8.960784313730265 2.5 0  9.098039215690642 2.5 0  9.235294117651017 2.5 0  9.372549019611395 2.5 0  9.50980392157177 2.5 0  9.647058823532147 2.5 0  9.784313725492522 2.5 0  9.921568627452897 2.5 0  10.05882352941327 2.5 0  10.19607843137365 2.5 0  10.33333333333402 2.5 0  10.4705882352944 2.5 0  10.60784313725478 2.5 0  10.74509803921515 2.5 0  10.88235294117553 2.5 0  11.0196078431359 2.5 0  11.15686274509628 2.5 0  11.29411764705665 2.5 0  11.43137254901703 2.5 0  11.56862745097915 2.5 0  11.70588235294301 2.5 0  11.84313725490686 2.5 0  11.98039215687072 2.5 0  12.11764705883209 2.5 0  12.25490196079247 2.5 0  1
[...]
<PointData  Vectors="f_17"> 
<DataArray  type="Float64"  Name="f_17"  NumberOfComponents="3" format="ascii">1.0000001313584519e+00 0.0000000000000000e+00 0.0000000000000000e+00  1.0392885257571256e+00 0.0000000000000000e+00 0.0000000000000000e+00  1.0638071395401634e+00 0.0000000000000000e+00 0.0000000000000000e+00  1.0903757562252059e+00 0.0000000000000000e+00 0.0000000000000000e+00  1.0742180327528623e+00 0.0000000000000000e+00 0.0000000000000000e+00  1.0506554625524707e+00 0.0000000000000000e+00 0.0000000000000000e+00  1.0415584662265187e+00 0.0000000000000000e+00 0.0000000000000000e+00  1.0000001313584519e+00 0.0000000000000000e+00 0.0000000000000000e+00  1.0205433974678608e+00 -4.9157827274753652e-02 0.0000000000000000e+00  1.0392315587858003e+00 8.8250220279186289e-02 0.0000000000000000e+00  1.1106504893606584e+00 5.5510209745711608e-02 0.0000000000000000e+00  1.0104044316823060e+00 5.6366210348665215e-02 0.0000000000000000e+00  1.0781194482362699e+00 6.1173935792926890e-02 0.0000000000000000e+00  1.0222487018814077e+00 5.2425054047856037e-02 0.0000000000000000e+00  0.0000000000000000e+00 0.0000000000000000e+00 0.0000000000000000e+00  0.0000000000000000e+00 0.0000000000000000e+00 0.0000000000000000e+00  1.0000001313584519e+00 0.0000000000000000e+00 0.0000000000000000e+00  9.9930540315928107e-01 0.0000000000000000e+00 0.0000000000000000e+00  9.9878706380428295e-01 0.0000000000000000e+00 0.0000000000000000e+00  1.0008653602064572e+00 0.0000000000000000e+00 0.0000000000000000e+00  1.0006825293210713e+00 0.0000000000000000e+00 0.0000000000000000e+00  1.0016169835748159e+00 0.0000000000000000e+00 0.0000000000000000e+00  1.0018587829651444e+00 0.0000000000000000e+00 0.0000000000000000e+00  1.0020273037254257e+00 0.0000000000000000e+00 0.0000000000000000e+00  1.0026904051138168e+00 0.0000000000000000e+00 0.0000000000000000e+00  1.0037380839991645e+00 0.0000000000000000e+00 0.0000000000000000e+00  1.0046801852916933e+00 0.0000000000000000e+00 0.0000000000000000e+00  1.0059822939421315e+00 0.0000000000000000e+00 0.0000000000000000e+00  1.0080520116456395e+00 0.0000000000000000e+00 0.0000000000000000e+00  1.0102507491813975e+00 0.0000000000000000e+00 0.0000000000000000e+00  1.0140422991863491e+00 0.0000000000000000e+00 0.0000000000000000e+00  1.0156061185722478e+00 0.0000000000000000e+00 0.0000000000000000e+00  1.0199750409218309e+00 0.0000000000000000e+00 0.0000000000000000e+00  1.0264955046195692e+00 0.0000000000000000e+00 0.0000000000000000e+00  1.0316632119808156e+00 0.0000000000000000e+00 0.0000000000000000e+00  1.0469599938000169e+00 0.0000000000000000e+00 0.0000000000000000e+00  1.0550887578833565e+00 0.0000000000000000e+00 0.0000000000000000e+00  1.0626896494861038e+00 0.0000000000000000e+00 0.0000000000000000e+00  1.0708115189461380e+00 0.0000000000000000e+00 0.0000000000000000e+00  1.0775990277302157e+00 0.0000000000000000e+00 0.0000000000000000e+00  1.0838411632097484e+00 0.0000000000000000e+00 0.0000000000000000e+00  1.0898238095424744e+00 0.0000000000000000e+00 0.0000000000000000e+00  1.0933763171504978e+00 0.0000000000000000e+00 0.0000000000000000e+00  1.0961192541170066e+00 0.0000000000000000e+00 0.0000000000000000e+00  1.0970847487509685e+00 0.0000000000000000e+00 0.0000000000000000e+00  1.0968236091470871e+00 0.0000000000000000e+00 0.0000000000000000e+00  1.0938080288614098e+00 0.0000000000000000e+00 0.0000000000000000e+00  1.0900773902020846e+00 0.0000000000000000e+00 0.0000000000000000e+00  1.0844808086032938e+00 0.0000000000000000e+00 0.0000000000000000e+00  1.0774690376066580e+00 0.0000000000000000e+00 0.0000000000000000e+00  1.0701165823239729e+00 0.0000000000000000e+00 0.0000000000000000e+00  1.0626486671816320e+00 0.0000000000000000e+00 0.0000000000000000e+00  1.0561293416250241e+00 0.0000000000000000e+00 0.0000000000000000e+00  1.0508320573199044e+00 0.0000000000000000e+00 0.0000000000000000e+00  1.0474380581948353e+00 0.0000000000000000e+00 0.0000000000000000e+00  1.0474685963751633e+00 0.0000000000000000e+00 0.0000000000000000e+00  1.0500540408414523e+00 0.0000000000000000e+00 0.0000000000000000e+00  1.0529879411185590e+00 0.0000000000000000e+00 0.0000000000000000e+00  1.0573231155008105e+00 0.0000000000000000e+00 0.0000000000000000e+00  1.0610134980393713e+00 0.0000000000000000e+00 0.0000000000000000e+00  1.0630262939388540e+00 0.0000000000000000e+00 0.0000000000000000e+00  1.0633344323054115e+00 0.0000000000000000e+00 0.0000000000000000e+00  1.0608559915314495e+00 0.0000000000000000e+00 0.0000000000000000e+00  1.0566628266064118e+00 0.0000000000000000e+00 0.0000000000000000e+00  1.0518139318385240e+00 0.0000000000000000e+00 0.0000000000000000e+00  1.0463477984874374e+00 0.0000000000000000e+00 0.0000000000000000e+00  1.0418936456581347e+00 0.0000000000000000e+00 0.0000000000000000e+00  1.0408970220821925e+00 0.0000000000000000e+00 0.0000000000000000e+00  1.0411562047903893e+00 0.0000000000000000e+00 0.0000000000000000e+00  1.0434518990039974e+00 0.0000000000000000e+00 0.0000000000000000e+00  1.0485487829268114e+00 0.0000000000000000e+00 0.0000000000000000e+00  1.0534802839356607e+00 0.0000000000000000e+00 0.0000000000000000e+00  1.0578997857033694e+00 0.0000000000000000e+00 0.0000000000000000e+00  1.0624157923200330e+00 0.0000000000000000e+00 0.0000000000000000e+00  1.0639069816264914e+00 0.0000000000000000e+00 0.0000000000000000e+00  1.0628692919896825e+00 0.0000000000000000e+00 0.0000000000000000e+00  1.0606291281069895e+00 0.0000000000000000e+00 0.0000000000000000e+00  1.0565331533272653e+00 0.0000000000000000e+00 0.0000000000000000e+00  1.0523161603998739e+00 0.0000000000000000e+00 0.0000000000000000e+00  1.0496195732926676e+00 0.0000000000000000e+00 0.0000000000000000e+00  1.0476359031054365e+00 0.0000000000000000e+00 0.0000000000000000e+00  1.0473896274649555e+00 0.0000000000000000e+00 0.0000000000000000e+00  1.0515668047539666e+00 0.0000000000000000e+00 0.0000000000000000e+00  1.0550266796589194e+00 0.0000000000000000e+00 0.0000000000000000e+00  1.0574731058506810e+00 0.0000000000000000e+00 0.0000000000000000e+00  1.0605965382323910e+00 0.0000000000000000e+00 0.0000000000000000e+00  1.0639938775967439e+00 0.0000000000000000e+00 0.0000000000000000e+00  1.0646623880293999e+00 0.0000000000000000e+00 0.0000000000000000e+00  1.0609573715868377e+00 0.0000000000000000e+00 0.0000000000000000e+00  1.0566056623341451e+00 0.0000000000000000e+00 0.0000000000000000e+00  1.0524493729653606e+00 0.0000000000000000e+00 0.0000000000000000e+00  1.0504064590724422e+00 0.0000000000000000e+00 0.0000000000000000e+00  1.0502890330993009e+00 0.0000000000000000e+00 0.0000000000000000e+00  1.0516460094154108e+00 0.0000000000000000e+00 0.0000000000000000e+00  1.0548351579512913e+00 0.0000000000000000e+00 0.0000000000000000e+00  1.0590733660446694e+00 0.0000000000000000e+00 0.0000000000000000e+00  1.0633917249645342e+00 0.0000000000000000e+00 0.0000000000000000e+00  1.0661704729122010e+00 0.0000000000000000e+00 0.0000000000000000e+00  1.0679368306967238e+00 0.0000000000000000e+00 0.0000000000000000e+00  1.0675270258918188e+00 0.0000000000000000e+00 0.0000000000000000e+00  1.0653559062295919e+00 0.0000000000000000e+00 0.0000000000000000e+00  1.0627594212220575e+00 0.0000000000000000e+00 0.0000000000000000e+00  1.0600415328826218e+00 0.0000000000000000e+00 0.0000000000000000e+00  1.0587490578921752e+00 0.0000000000000000e+00 0.0000000000000000e+00  1.0584326252202170e+00 0.0000000000000000e+00 0.0000000000000000e+00  1.0608074896744080e+00 0.0000000000000000e+00 0.0000000000000000e+00  1.0650150376317131e+00 0.0000000000000000e+00 0.0000000000000000e+00  1.0713332882775681e+00 0.0000000000000000e+00 0.0000000000000000e+00  1.0775615578188582e+00 0.0000000000000000e+00 0.0000000000000000e+00  1.0838595683854839e+00 0.0000000000000000e+00 0.0000000000000000e+00  1.0876874431941017e+00 0.0000000000000000e+00 0.0000000000000000e+00  1.0921441580689752e+00 -1.2311444258980740e-03 0.0000000000000000e+00  1.0970658847091070e+00 -2.1968474254413545e-03 0.0000000000000000e+00  1.1068603338775982e+00 -2.3732641882391915e-03 0.0000000000000000e+00  1.1235687240545562e+00 -7.4310252187441688e-04 0.0000000000000000e+00  1.1511965649606328e+00 5.8805595962391653e-03 0.0000000000000000e+00  1.1760659089458245e+00 1.7441414432765947e-02 0.0000000000000000e+00  1.1730357249204983e+00 4.4099175420549371e-02 0.0000000000000000e+00  1.1189611218704070e+00 7.8357682051246991e-02 0.0000000000000000e+00  1.0088089084744021e+00 1.2115548293002031e-01 0.0000000000000000e+00  8.7277792421259803e-01 1.5686314514928895e-01 0.0000000000000000e+00  7.6326558072443906e-01 1.8241261376378767e-01 0.0000000000000000e+00  7.1301978544703670e-01 1.8841110650284393e-01 0.0000000000000000e+00  7.2702968069274776e-01 1.7890052813310472e-01 0.0000000000000000e+00  7.7938956388231284e-01 1.6697209993517748e-01 0.0000000000000000e+00  8.4936515020444203e-01 1.4065632309705803e-01 0.0000000000000000e+00  9.1240957541993983e-01 1.0546238477051235e-01 0.0000000000000000e+00  9.6092648967108629e-01 7.1077235304342928e-02 0.0000000000000000e+00  1.0011013390687515e+00 4.6040259606451937e-02 0.0000000000000000e+00  1.0318578140470818e+00 3.3780574542665739e-02 0.0000000000000000e+00  1.0530194511472823e+00 2.3915481219231052e-02 0.0000000000000000e+00  1.0647750005180394e+00 1.6547672073514048e-02 0.0000000000000000e+00  1.0714292885495462e+00 1.0370325901555913e-02 0.0000000000000000e+00  1.0739369836808033e+00 4.9125324810218871e-03 0.0000000000000000e+00  1.0703450196300823e+00 0.0000000000000000e+00 0.0000000000000000e+00  1.0688117723056896e+00 0.0000000000000000e+00 0.0000000000000000e+00  1.0690617598417227e+00 0.0000000000000000e+00 0.0000000000000000e+00  1.0707590161096852e+00 0.0000000000000000e+00 0.0000000000000000e+00  1.0719524894119290e+00 0.0000000000000000e+00 0.0000000000000000e+00  1.0727990009420183e+00 0.0000000000000000e+00 0.0000000000000000e+00  1.0724759107092441e+00 0.0000000000000000e+00 0.0000000000000000e+00  1.0704834740619753e+00 0.0000000000000000e+00 0.0000000000000000e+00  1.0663146585571177e+00 0.0000000000000000e+00 0.0000000000000000e+00  1.0616108603341086e+00 0.0000000000000000e+00 0.0000000000000000e+00  1.0570105149916131e+00 0.0000000000000000e+00 0.0000000000000000e+00  1.0533336734061554e+00 0.0000000000000000e+00 0.0000000000000000e+00  1.0516297785094579e+00 0.0000000000000000e+00 0.0000000000000000e+00  1.0526670389103547e+00 0.0000000000000000e+00 0.0000000000000000e+00  1.0548500136259937e+00 0.0000000000000000e+00 0.0000000000000000e+00  1.0589782416029252e+00 0.0000000000000000e+00 0.0000000000000000e+00  1.0619842469944087e+00 0.0000000000000000e+00 0.0000000000000000e+00  1.0645897590936306e+00 0.0000000000000000e+00 0.0000000000000000e+00  1.0652501331796660e+00 0.0000000000000000e+00 0.0000000000000000e+00  1.0645527593279347e+00 0.0000000000000000e+00 0.0000000000000000e+00  1.0619256301763929e+00 0.0000000000000000e+00 0.0000000000000000e+00  1.0576450668398154e+00 0.0000000000000000e+00 0.0000000000000000e+00  1.0539122618843471e+00 0.0000000000000000e+00 0.0000000000000000e+00  1.0483091747690838e+00 0.0000000000000000e+00 0.0000000000000000e+00  1.0485843504891210e+00 0.0000000000000000e+00 0.0000000000000000e+00  1.0496543582879103e+00 0.0000000000000000e+00 0.0000000000000000e+00  1.0536708097793264e+00 0.0000000000000000e+00 0.0000000000000000e+00  1.0591761786747045e+00 0.0000000000000000e+00 0.0000000000000000e+00  1.0628917099780033e+00 0.0000000000000000e+00 0.0000000000000000e+00  1.0633820148163227e+00 0.0000000000000000e+00 0.0000000000000000e+00  1.0640619027275742e+00 0.0000000000000000e+00 0.0000000000000000e+00  1.0623706855593775e+00 0.0000000000000000e+00 0.0000000000000000e+00  1.0581186539996470e+00 0.0000000000000000e+00 0.0000000000000000e+00  1.0536391088548318e+00 0.0000000000000000e+00 0.0000000000000000e+00  1.0492752275386206e+00 0.0000000000000000e+00 0.0000000000000000e+00  1.0453304503675407e+00 0.0000000000000000e+00 0.0000000000000000e+00  1.0440354569317221e+00 0.0000000000000000e+00 0.0000000000000000e+00  1.0448408214269189e+00 0.0000000000000000e+00 0.0000000000000000e+00  1.0466827042167197e+00 0.0000000000000000e+00 0.0000000000000000e+00  1.0511964797559412e+00 0.0000000000000000e+00 0.0000000000000000e+00  1.0560119883438512e+00 0.0000000000000000e+00 0.0000000000000000e+00  1.0593457987960229e+00 0.0000000000000000e+00 0.0000000000000000e+00  1.0618484689955414e+00 0.0000000000000000e+00 0.0000000000000000e+00  1.0618787020333089e+00 0.0000000000000000e+00 0.0000000000000000e+00  1.0584118453838534e+00 0.0000000000000000e+00 0.0000000000000000e+00  1.0544556772008742e+00 0.0000000000000000e+00 0.0000000000000000e+00  1.0494089267230355e+00 0.0000000000000000e+00 0.0000000000000000e+00  1.0436731364582650e+00 0.0000000000000000e+00 0.0000000000000000e+00  1.0397694157946036e+00 0.0000000000000000e+00 0.0000000000000000e+00  1.0379603100917607e+00 0.0000000000000000e+00 0.0000000000000000e+00  1.0383506390149360e+00 0.0000000000000000e+00 0.0000000000000000e+00  1.0415180407609717e+00 0.0000000000000000e+00 0.0000000000000000e+00  1.0466649558961247e+00 0.0000000000000000e+00 0.0000000000000000e+00  1.0525468073792628e+00 0.0000000000000000e+00 0.0000000000000000e+00  1.0593230344309428e+00 0.0000000000000000e+00 0.0000000000000000e+00  1.0640734043403033e+00 0.0000000000000000e+00 0.0000000000000000e+00  1.0676871867962743e+00 0.0000000000000000e+00 0.0000000000000000e+00  1.0703536291444056e+00 0.0000000000000000e+00 0.0000000000000000e+00  1.0712511187665668e+00 0.0000000000000000e+00 0.0000000000000000e+00  1.0706890666852644e+00 0.0000000000000000e+00 0.0000000000000000e+00  1.0695464340949790e+00 0.0000000000000000e+00 0.0000000000000000e+00  1.0694318112848835e+00 0.0000000000000000e+00 0.0000000000000000e+00  1.0712506866523115e+00 0.0000000000000000e+00 0.0000000000000000e+00  1.0736191988847728e+00 0.0000000000000000e+00 0.0000000000000000e+00  1.0768923909600077e+00 0.0000000000000000e+00 0.0000000000000000e+00  1.0821225972840973e+00 0.0000000000000000e+00 0.0000000000000000e+00  1.0854378481071092e+00 0.0000000000000000e+00 0.0000000000000000e+00  1.0886175001351279e+00 0.0000000000000000e+00 0.0000000000000000e+00  1.0898046041094742e+00 0.0000000000000000e+00 0.0000000000000000e+00  1.0883808843739122e+00 0.0000000000000000e+00 0.0000000000000000e+00  1.0850053984466039e+00 0.0000000000000000e+00 0.0000000000000000e+00  1.0800728957595187e+00 0.0000000000000000e+00 0.0000000000000000e+00  1.0736741969141219e+00 0.0000000000000000e+00 0.0000000000000000e+00  1.0655239635505538e+00 0.0000000000000000e+00 0.0000000000000000e+00  1.0579132630697252e+00 0.0000000000000000e+00 0.0000000000000000e+00  1.0495668861557905e+00 0.0000000000000000e+00 0.0000000000000000e+00  1.0338096348990689e+00 0.0000000000000000e+00 0.0000000000000000e+00  1.0271132089972124e+00 0.0000000000000000e+00 0.0000000000000000e+00  1.0218284966096400e+00 0.0000000000000000e+00 0.0000000000000000e+00  1.0171146869942698e+00 0.0000000000000000e+00 0.0000000000000000e+00  1.0132560398932320e+00 0.0000000000000000e+00 0.0000000000000000e+00  1.0102093591384251e+00 0.0000000000000000e+00 0.0000000000000000e+00  1.0078681587982119e+00 0.0000000000000000e+00 0.0000000000000000e+00  1.0055776000219203e+00 0.0000000000000000e+00 0.0000000000000000e+00  1.0039578117607981e+00 0.0000000000000000e+00 0.0000000000000000e+00  1.0027876755092784e+00 0.0000000000000000e+00 0.0000000000000000e+00  1.0014798183104185e+00 0.0000000000000000e+00 0.0000000000000000e+00  1.0012237114495495e+00 0.0000000000000000e+00 0.0000000000000000e+00  1.0000994106159522e+00 0.0000000000000000e+00 0.0000000000000000e+00  1.0000497215301283e+00 0.0000000000000000e+00 0.0000000000000000e+00  9.9967177019586939e-01 0.0000000000000000e+00 0.0000000000000000e+00  1.0003837560554689e+00 0.0000000000000000e+00 0.0000000000000000e+00  1.0001945467958955e+00 0.0000000000000000e+00 0.0000000000000000e+00  9.9978873666325507e-01 0.0000000000000000e+00 0.0000000000000000e+00  1.0000001313584519e+00 0.0000000000000000e+00 0.0000000000000000e+00  1.0000001313584519e+00 0.0000000000000000e+00 0.0000000000000000e+00  1.0000001313584519e+00 0.0000000000000000e+00 0.0000000000000000e+00  1.0000001313584519e+00 0.0000000000000000e+00 0.0000000000000000e+00  1.0000001313584519e+00 0.0000000000000000e+00 0.0000000000000000e+00  1.0000001313584519e+00 0.0000000000000000e+00 0.0000000000000000e+00  1.0000001313584519e+00 0.0000000000000000e+00 0.0000000000000000e+00  1.0000001313584519e+00 0.0000000000000000e+00 0.0000000000000000e+00  1.0000001313584519e+00 0.0000000000000000e+00 0.0000000000000000e+00  1.0000001313584519e+00 0.0000000000000000e+00 0.0000000000000000e+00  1.0000001313584519e+00 0.0000000000000000e+00 0.0000000000000000e+00  1.0000001313584519e+00 0.0000000000000000e+00 0.0000000000000000e+00  1.0000001313584519e+00 0.0000000000000000e+00 0.0000000000000000e+00  1.0000001313584519e+00 0.0000000000000000e+00 0.0000000000000000e+00  1.0000001313584519e+00 0.0000000000000000e+00 0.0000000000000000e+00  1.0000001313584519e+00 0.0000000000000000e+00 0.0000000000000000e+00  1.0000001313584519e+00 0.0000000000000000e+00 0.0000000000000000e+00  1.0000001313584519e+00 0.0000000000000000e+00 0.0000000000000000e+00  1.0000001313584519e+00 0.0000000000000000e+00 0.0000000000000000e+00  1.0000001313584519e+00 0.0000000000000000e+00 0.0000000000000000e+00  1.0386911577308733e+00 -8.9599771029761337e-03 0.0000000000000000e+00  1.0357944845751079e+00 -1.8118385201422792e-02 0.0000000000000000e+00  1.0337634004888852e+00 -2.8114358418121065e-02 0.0000000000000000e+00  1.0284214001066205e+00 -3.8481236495334151e-02 0.0000000000000000e+00  1.0231471458644805e+00 -5.2563240854667917e-02 0.0000000000000000e+00  1.0275216391129371e+00 -5.5603129851167526e-02 0.0000000000000000e+00  1.0314316882704710e+00 -5.8693745185692377e-02 0.0000000000000000e+00  1.0363377060504795e+00 -6.1429820935476519e-02 0.0000000000000000e+00  1.0414335000276653e+00 -6.3990972220097198e-02 0.0000000000000000e+00  1.0470899327093324e+00 -6.6080325867725512e-02 0.0000000000000000e+00  1.0532459958231464e+00 -6.7796700860495926e-02 0.0000000000000000e+00  1.0597074657036938e+00 -6.8823346193979090e-02 0.0000000000000000e+00  1.0665840151291825e+00 -6.9270852992071322e-02 0.0000000000000000e+00  1.0733872164120679e+00 -6.8822587858065026e-02 0.0000000000000000e+00  1.0803544219709911e+00 -6.7766275392264694e-02 0.0000000000000000e+00  1.0871040697625967e+00 -6.6025910180377512e-02 0.0000000000000000e+00  1.0937526797671711e+00 -6.3269001438962885e-02 0.0000000000000000e+00  1.0997724793590369e+00 -5.9695475593298825e-02 0.0000000000000000e+00  1.1052146497833235e+00 -5.5674707606456736e-02 0.0000000000000000e+00  1.1099553084856182e+00 -5.1107618712499116e-02 0.0000000000000000e+00  1.1138305535055784e+00 -4.6201897987136524e-02 0.0000000000000000e+00  1.1167873028802857e+00 -4.1092769314458780e-02 0.0000000000000000e+00  1.1189777916697214e+00 -3.6117407393725966e-02 0.0000000000000000e+00  1.1203209853636813e+00 -3.1147261093258844e-02 0.0000000000000000e+00  1.1209709605363465e+00 -2.6837831242288814e-02 0.0000000000000000e+00  1.1210216226900964e+00 -2.2663081616807579e-02 0.0000000000000000e+00  1.1206246764294601e+00 -1.9129209796090351e-02 0.0000000000000000e+00  1.1201054225320883e+00 -1.6373357864872568e-02 0.0000000000000000e+00  1.1195236156927297e+00 -1.4269208059632660e-02 0.0000000000000000e+00  1.1190874041919621e+00 -1.2749021333646662e-02 0.0000000000000000e+00  1.1189922887312733e+00 -1.1587248474531643e-02 0.0000000000000000e+00  1.1194477105461986e+00 -1.0786161877176900e-02 0.0000000000000000e+00  1.1203669478406530e+00 -1.0053076552930256e-02 0.0000000000000000e+00  1.1220058603384895e+00 -9.1568546088774076e-03 0.0000000000000000e+00  1.1242159213004885e+00 -7.9287318321800762e-03 0.0000000000000000e+00  1.1268849844938573e+00 -6.0380802556561745