<?xml version="1.0"?>
<VTKFile type="UnstructuredGrid"  version="0.1"  >
<UnstructuredGrid>
<Piece  NumberOfPoints="10199" NumberOfCells="20110">
<Points>
<DataArray  type="Float64"  NumberOfComponents="3"  format="ascii">0 -5 0  8 -5 0  30 -5 0  40 -5 0  40 5 0  30 5 0  8 5 0  0 5 0  8 -2.5 0  15 -2.5 0  30 -2.5 0  30 2.5 0  15 2.5 0  8 2.5 0  10 0.5 0  10 -0.5 0  0 0 0  0.4210526315780956 -5 0  0.8421052631563433 -5 0  1.263157894734281 -5 0  1.684210526311999 -5 0  2.105263157889717 -5 0  2.526315789467435 -5 0  2.947368421045153 -5 0  3.368421052622872 -5 0  3.78947368420059 -5 0  4.210526315779479 -5 0  4.631578947359537 -5 0  5.052631578939595 -5 0  5.473684210519653 -5 0  5.89473684209971 -5 0  6.315789473679768 -5 0  6.736842105259826 -5 0  7.157894736839884 -5 0  7.578947368419942 -5 0  8.407407407405314 -5 0  8.814814814810628 -5 0  9.222222222215942 -5 0  9.629629629621256 -5 0  10.03703703702657 -5 0  10.44444444443188 -5 0  10.8518518518372 -5 0  11.25925925924251 -5 0  11.66666666664783 -5 0  12.07407407405314 -5 0  12.48148148145846 -5 0  12.88888888886377 -5 0  13.29629629626908 -5 0  13.7037037036744 -5 0  14.11111111107971 -5 0  14.51851851848502 -5 0  14.92592592589034 -5 0  15.33333333329565 -5 0  15.74074074070096 -5 0  16.14814814810754 -5 0  16.55555555551614 -5 0  16.96296296292474 -5 0  17.37037037033335 -5 0  17.77777777774195 -5 0  18.18518518515056 -5 0  18.59259259255916 -5 0  18.99999999996776 -5 0  19.40740740737636 -5 0  19.81481481478497 -5 0  20.22222222219357 -5 0  20.62962962960217 -5 0  21.03703703701077 -5 0  21.44444444441937 -5 0  21.85185185182797 -5 0  22.25925925923657 -5 0  22.66666666664518 -5 0  23.07407407405378 -5 0  23.48148148146238 -5 0  23.88888888887098 -5 0  24.29629629627958 -5 0  24.70370370368818 -5 0  25.11111111109678 -5 0  25.51851851850539 -5 0  25.92592592591399 -5 0  26.33333333332259 -5 0  26.74074074073119 -5 0  27.14814814813979 -5 0  27.55555555554839 -5 0  27.96296296295699 -5 0  28.3703703703656 -5 0  28.7777777777742 -5 0  29.1851851851828 -5 0  29.5925925925914 -5 0  30.41666666667852 -5 0  30.83333333335704 -5 0  31.25000000003556 -5 0  31.66666666671408 -5 0  32.08333333338936 -5 0  32.50000000005308 -5 0  32.9166666667168 -5 0  33.33333333338052 -5 0  33.75000000004424 -5 0  34.16666666670795 -5 0  34.58333333337167 -5 0  35.00000000003539 -5 0  35.41666666669911 -5 0  35.83333333336282 -5 0  36.25000000002654 -5 0  36.66666666669026 -5 0  37.08333333335398 -5 0  37.50000000001769 -5 0  37.91666666668141 -5 0  38.33333333334513 -5 0  38.75000000000885 -5 0  39.16666666667257 -5 0  39.58333333333628 -5 0  40 -4.583333333332821 0  40 -4.166666666665642 0  40 -3.74999999999855 0  40 -3.333333333333135 0  40 -2.916666666667806 0  40 -2.500000000002478 0  40 -2.083333333337148 0  40 -1.666666666671818 0  40 -1.250000000006488 0  40 -0.8333333333405228 0  40 -0.4166666666733416 0  40 -6.163070054299169e-12 0  40 0.4166666666610173 0  40 0.8333333333281976 0  40 1.249999999995378 0  40 1.666666666662558 0  40 2.083333333329739 0  40 2.499999999996919 0  40 2.916666666664099 0  40 3.33333333333128 0  40 3.74999999999846 0  40 4.166666666665641 0  40 4.583333333332821 0  39.58333333333628 5 0  39.16666666667256 5 0  38.75000000000885 5 0  38.33333333334513 5 0  37.91666666668141 5 0  37.50000000001769 5 0  37.08333333335398 5 0  36.66666666669025 5 0  36.25000000002654 5 0  35.83333333336282 5 0  35.41666666669911 5 0  35.00000000003539 5 0  34.58333333337167 5 0  34.16666666670795 5 0  33.75000000004424 5 0  33.33333333338052 5 0  32.9166666667168 5 0  32.50000000005308 5 0  32.08333333338936 5 0  31.66666666671408 5 0  31.25000000003556 5 0  30.83333333335704 5 0  30.41666666667852 5 0  29.59259259259259 5 0  29.18518518518519 5 0  28.77777777777778 5 0  28.37037037037037 5 0  27.96296296296296 5 0  27.55555555555556 5 0  27.14814814814815 5 0  26.74074074074074 5 0  26.33333333333333 5 0  25.92592592592593 5 0  25.51851851851852 5 0  25.11111111111111 5 0  24.7037037037037 5 0  24.2962962962963 5 0  23.88888888888889 5 0  23.48148148148148 5 0  23.07407407407408 5 0  22.66666666666667 5 0  22.25925925925926 5 0  21.85185185185185 5 0  21.44444444444445 5 0  21.03703703703704 5 0  20.62962962962963 5 0  20.22222222222222 5 0  19.81481481481482 5 0  19.40740740740741 5 0  19 5 0  18.5925925925926 5 0  18.18518518518519 5 0  17.77777777777778 5 0  17.37037037037037 5 0  16.96296296296296 5 0  16.55555555555556 5 0  16.14814814814815 5 0  15.74074074074074 5 0  15.33333333333333 5 0  14.92592592592593 5 0  14.51851851851852 5 0  14.11111111111111 5 0  13.70370370370371 5 0  13.2962962962963 5 0  12.88888888888889 5 0  12.48148148148148 5 0  12.07407407407408 5 0  11.66666666666667 5 0  11.25925925925926 5 0  10.85185185185185 5 0  10.44444444444445 5 0  10.03703703703704 5 0  9.629629629629633 5 0  9.222222222222221 5 0  8.814814814814817 5 0  8.407407407407408 5 0  7.5789473684193 5 0  7.157894736838599 5 0  6.73684210526082 5 0  6.315789473684795 5 0  5.894736842108769 5 0  5.473684210532742 5 0  5.052631578956715 5 0  4.631578947380689 5 0  4.210526315804662 5 0  3.789473684226299 5 0  3.368421052645599 5 0  2.947368421064898 5 0  2.526315789484198 5 0  2.105263157903499 5 0  1.6842105263228 5 0  1.2631578947421 5 0  0.8421052631613994 5 0  0.4210526315806993 5 0  0 4.545454545454545 0  0 4.09090909090909 0  0 3.636363636363634 0  0 3.18181818181818 0  0 2.727272727272726 0  0 2.272727272727271 0  0 1.818181818181817 0  0 1.363636363636363 0  0 0.9090909090909092 0  0 0.454545454545455 0  0 -0.4545454545450807 0  0 -0.9090909090895867 0  0 -1.363636363633713 0  0 -1.818181818177841 0  0 -2.272727272723127 0  0 -2.727272727269273 0  0 -3.181818181815419 0  0 -3.636363636361564 0  0 -4.090909090907709 0  0 -4.545454545453855 0  8 -4.499999999999999 0  8 -3.999999999999999 0  8 -3.499999999999999 0  8 -3 0  8.137254901963859 -2.5 0  8.274509803926303 -2.5 0  8.411764705886863 -2.5 0  8.549019607849138 -2.5 0  8.686274509809513 -2.5 0  8.82352941176989 -2.5 0  8.960784313730265 -2.5 0  9.098039215690642 -2.5 0  9.235294117651017 -2.5 0  9.372549019611395 -2.5 0  9.50980392157177 -2.5 0  9.647058823532147 -2.5 0  9.784313725492522 -2.5 0  9.921568627452897 -2.5 0  10.05882352941327 -2.5 0  10.19607843137365 -2.5 0  10.33333333333402 -2.5 0  10.4705882352944 -2.5 0  10.60784313725478 -2.5 0  10.74509803921515 -2.5 0  10.88235294117553 -2.5 0  11.0196078431359 -2.5 0  11.15686274509628 -2.5 0  11.29411764705665 -2.5 0  11.43137254901703 -2.5 0  11.56862745097915 -2.5 0  11.70588235294301 -2.5 0  11.84313725490686 -2.5 0  11.98039215687072 -2.5 0  12.11764705883209 -2.5 0  12.25490196079247 -2.5 0  12.39215686275285 -2.5 0  12.52941176471322 -2.5 0  12.6666666666736 -2.5 0  12.80392156863397 -2.5 0  12.94117647059435 -2.5 0  13.07843137255473 -2.5 0  13.2156862745151 -2.5 0  13.35294117647548 -2.5 0  13.49019607843586 -2.5 0  13.62745098039623 -2.5 0  13.76470588235661 -2.5 0  13.90196078431699 -2.5 0  14.03921568627736 -2.5 0  14.17647058823774 -2.5 0  14.31372549019812 -2.5 0  14.45098039215849 -2.5 0  14.58823529411887 -2.5 0  14.72549019607925 -2.5 0  14.86274509803962 -2.5 0  15.20270270270254 -2.5 0  15.40540540540509 -2.5 0  15.60810810810763 -2.5 0  15.81081081081017 -2.5 0  16.01351351351227 -2.5 0  16.21621621621265 -2.5 0  16.41891891891279 -2.5 0  16.62162162161294 -2.5 0  16.82432432431308 -2.5 0  17.02702702701322 -2.5 0  17.22972972971337 -2.5 0  17.43243243241351 -2.5 0  17.63513513511365 -2.5 0  17.83783783781379 -2.5 0  18.04054054051394 -2.5 0  18.24324324321408 -2.5 0  18.44594594591422 -2.5 0  18.64864864861436 -2.5 0  18.85135135131451 -2.5 0  19.05405405401465 -2.5 0  19.25675675671479 -2.5 0  19.45945945941494 -2.5 0  19.66216216211508 -2.5 0  19.86486486481522 -2.5 0  20.06756756751536 -2.5 0  20.27027027021551 -2.5 0  20.47297297291565 -2.5 0  20.6756756756158 -2.5 0  20.87837837831594 -2.5 0  21.08108108101608 -2.5 0  21.28378378371622 -2.5 0  21.48648648641637 -2.5 0  21.68918918911651 -2.5 0  21.89189189181666 -2.5 0  22.0945945945168 -2.5 0  22.29729729721694 -2.5 0  22.49999999991778 -2.5 0  22.70270270262203 -2.5 0  22.90540540532697 -2.5 0  23.10810810803191 -2.5 0  23.31081081073686 -2.5 0  23.5135135134418 -2.5 0  23.71621621614674 -2.5 0  23.91891891885169 -2.5 0  24.12162162155663 -2.5 0  24.32432432426158 -2.5 0  24.52702702696652 -2.5 0  24.72972972967146 -2.5 0  24.93243243237641 -2.5 0  25.13513513508135 -2.5 0  25.3378378377863 -2.5 0  25.54054054049124 -2.5 0  25.74324324319618 -2.5 0  25.94594594590112 -2.5 0  26.14864864860607 -2.5 0  26.35135135131101 -2.5 0  26.55405405401596 -2.5 0  26.7567567567209 -2.5 0  26.95945945942584 -2.5 0  27.16216216213079 -2.5 0  27.36486486483573 -2.5 0  27.56756756754068 -2.5 0  27.77027027024562 -2.5 0  27.97297297295056 -2.5 0  28.1756756756555 -2.5 0  28.37837837836045 -2.5 0  28.5810810810654 -2.5 0  28.78378378377034 -2.5 0  28.98648648647528 -2.5 0  29.18918918918023 -2.5 0  29.39189189188517 -2.5 0  29.59459459459011 -2.5 0  29.79729729729506 -2.5 0  30 -3.000000000000001 0  30 -3.500000000000001 0  30 -4.000000000000001 0  30 -4.5 0  8 4.499999999999999 0  8 3.999999999999999 0  8 3.499999999999999 0  8 3 0  8.137254901963859 2.5 0  8.274509803926303 2.5 0  8.411764705886863 2.5 0  8.549019607849138 2.5 0  8.686274509809513 2.5 0  8.82352941176989 2.5 0  8.960784313730265 2.5 0  9.098039215690642 2.5 0  9.235294117651017 2.5 0  9.372549019611395 2.5 0  9.50980392157177 2.5 0  9.647058823532147 2.5 0  9.784313725492522 2.5 0  9.921568627452897 2.5 0  10.05882352941327 2.5 0  10.19607843137365 2.5 0  10.33333333333402 2.5 0  10.4705882352944 2.5 0  10.60784313725478 2.5 0  10.74509803921515 2.5 0  10.88235294117553 2.5 0  11.0196078431359 2.5 0  11.15686274509628 2.5 0  11.29411764705665 2.5 0  11.43137254901703 2.5 0  11.56862745097915 2.5 0  11.70588235294301 2.5 0  11.84313725490686 2.5 0  11.98039215687072 2.5 0  12.11764705883209 2.5 0  12.25490196079247 2.5 0  1
[...]
<PointData  Vectors="f_17"> 
<DataArray  type="Float64"  Name="f_17"  NumberOfComponents="3" format="ascii">1.0000001299973607e+00 0.0000000000000000e+00 0.0000000000000000e+00  1.0406766829699623e+00 0.0000000000000000e+00 0.0000000000000000e+00  1.0604299012911202e+00 0.0000000000000000e+00 0.0000000000000000e+00  1.1012713721338196e+00 0.0000000000000000e+00 0.0000000000000000e+00  1.1259459909882443e+00 0.0000000000000000e+00 0.0000000000000000e+00  1.0742777198173035e+00 0.0000000000000000e+00 0.0000000000000000e+00  1.0406409910983359e+00 0.0000000000000000e+00 0.0000000000000000e+00  1.0000001299973607e+00 0.0000000000000000e+00 0.0000000000000000e+00  1.0188282289635424e+00 -5.1625251143481828e-02 0.0000000000000000e+00  1.0016303303653440e+00 -2.8601874331794116e-02 0.0000000000000000e+00  9.9838479203213504e-01 2.2588300433241327e-02 0.0000000000000000e+00  1.1682031196682086e+00 3.0666840482750247e-02 0.0000000000000000e+00  1.1050590134891576e+00 -7.8061311841746889e-02 0.0000000000000000e+00  1.0240175833555938e+00 5.0490929480265845e-02 0.0000000000000000e+00  0.0000000000000000e+00 0.0000000000000000e+00 0.0000000000000000e+00  0.0000000000000000e+00 0.0000000000000000e+00 0.0000000000000000e+00  1.0000001299973607e+00 0.0000000000000000e+00 0.0000000000000000e+00  9.9927713946648855e-01 0.0000000000000000e+00 0.0000000000000000e+00  9.9865244402383668e-01 0.0000000000000000e+00 0.0000000000000000e+00  1.0006365255577570e+00 0.0000000000000000e+00 0.0000000000000000e+00  1.0003353636706758e+00 0.0000000000000000e+00 0.0000000000000000e+00  1.0011840166730859e+00 0.0000000000000000e+00 0.0000000000000000e+00  1.0013708298755486e+00 0.0000000000000000e+00 0.0000000000000000e+00  1.0015665496273578e+00 0.0000000000000000e+00 0.0000000000000000e+00  1.0023224575589771e+00 0.0000000000000000e+00 0.0000000000000000e+00  1.0034762597129259e+00 0.0000000000000000e+00 0.0000000000000000e+00  1.0045790881607812e+00 0.0000000000000000e+00 0.0000000000000000e+00  1.0059988745944632e+00 0.0000000000000000e+00 0.0000000000000000e+00  1.0082170951806431e+00 0.0000000000000000e+00 0.0000000000000000e+00  1.0105085091022257e+00 0.0000000000000000e+00 0.0000000000000000e+00  1.0143446933736784e+00 0.0000000000000000e+00 0.0000000000000000e+00  1.0159856583503013e+00 0.0000000000000000e+00 0.0000000000000000e+00  1.0204430607056811e+00 0.0000000000000000e+00 0.0000000000000000e+00  1.0271328329119398e+00 0.0000000000000000e+00 0.0000000000000000e+00  1.0325736722497467e+00 0.0000000000000000e+00 0.0000000000000000e+00  1.0489631977831542e+00 0.0000000000000000e+00 0.0000000000000000e+00  1.0578299779519791e+00 0.0000000000000000e+00 0.0000000000000000e+00  1.0662712744255169e+00 0.0000000000000000e+00 0.0000000000000000e+00  1.0752586065970546e+00 0.0000000000000000e+00 0.0000000000000000e+00  1.0826245502055682e+00 0.0000000000000000e+00 0.0000000000000000e+00  1.0890015308161245e+00 0.0000000000000000e+00 0.0000000000000000e+00  1.0943800821078056e+00 0.0000000000000000e+00 0.0000000000000000e+00  1.0963655586601195e+00 0.0000000000000000e+00 0.0000000000000000e+00  1.0965874130228741e+00 0.0000000000000000e+00 0.0000000000000000e+00  1.0942399689899858e+00 0.0000000000000000e+00 0.0000000000000000e+00  1.0902818058337858e+00 0.0000000000000000e+00 0.0000000000000000e+00  1.0839237710109610e+00 0.0000000000000000e+00 0.0000000000000000e+00  1.0781024648220945e+00 0.0000000000000000e+00 0.0000000000000000e+00  1.0723774108649535e+00 0.0000000000000000e+00 0.0000000000000000e+00  1.0676916760597839e+00 0.0000000000000000e+00 0.0000000000000000e+00  1.0650811392547053e+00 0.0000000000000000e+00 0.0000000000000000e+00  1.0642380093552828e+00 0.0000000000000000e+00 0.0000000000000000e+00  1.0651287679189212e+00 0.0000000000000000e+00 0.0000000000000000e+00  1.0666518324660534e+00 0.0000000000000000e+00 0.0000000000000000e+00  1.0678245632586536e+00 0.0000000000000000e+00 0.0000000000000000e+00  1.0691662686539030e+00 0.0000000000000000e+00 0.0000000000000000e+00  1.0690486760158124e+00 0.0000000000000000e+00 0.0000000000000000e+00  1.0656609791437768e+00 0.0000000000000000e+00 0.0000000000000000e+00  1.0612388727701134e+00 0.0000000000000000e+00 0.0000000000000000e+00  1.0554625169541481e+00 0.0000000000000000e+00 0.0000000000000000e+00  1.0494422298063186e+00 0.0000000000000000e+00 0.0000000000000000e+00  1.0446933734389576e+00 0.0000000000000000e+00 0.0000000000000000e+00  1.0413147058951155e+00 0.0000000000000000e+00 0.0000000000000000e+00  1.0403813819798651e+00 0.0000000000000000e+00 0.0000000000000000e+00  1.0424029793058747e+00 0.0000000000000000e+00 0.0000000000000000e+00  1.0459313374385693e+00 0.0000000000000000e+00 0.0000000000000000e+00  1.0507936997976148e+00 0.0000000000000000e+00 0.0000000000000000e+00  1.0576753830135888e+00 0.0000000000000000e+00 0.0000000000000000e+00  1.0626558549959961e+00 0.0000000000000000e+00 0.0000000000000000e+00  1.0656108808258000e+00 0.0000000000000000e+00 0.0000000000000000e+00  1.0670469368430191e+00 0.0000000000000000e+00 0.0000000000000000e+00  1.0652182698116588e+00 0.0000000000000000e+00 0.0000000000000000e+00  1.0613137802588783e+00 0.0000000000000000e+00 0.0000000000000000e+00  1.0579512946657830e+00 0.0000000000000000e+00 0.0000000000000000e+00  1.0538813437968946e+00 0.0000000000000000e+00 0.0000000000000000e+00  1.0509411575446015e+00 0.0000000000000000e+00 0.0000000000000000e+00  1.0507005329825185e+00 0.0000000000000000e+00 0.0000000000000000e+00  1.0519089466383387e+00 0.0000000000000000e+00 0.0000000000000000e+00  1.0550657960720662e+00 0.0000000000000000e+00 0.0000000000000000e+00  1.0602905811739041e+00 0.0000000000000000e+00 0.0000000000000000e+00  1.0650279541323204e+00 0.0000000000000000e+00 0.0000000000000000e+00  1.0687806909147504e+00 0.0000000000000000e+00 0.0000000000000000e+00  1.0735923631424518e+00 0.0000000000000000e+00 0.0000000000000000e+00  1.0742788258339049e+00 0.0000000000000000e+00 0.0000000000000000e+00  1.0711948711998700e+00 0.0000000000000000e+00 0.0000000000000000e+00  1.0676162733329768e+00 0.0000000000000000e+00 0.0000000000000000e+00  1.0650532517232867e+00 0.0000000000000000e+00 0.0000000000000000e+00  1.0617879845650517e+00 0.0000000000000000e+00 0.0000000000000000e+00  1.0605027273298460e+00 0.0000000000000000e+00 0.0000000000000000e+00  1.0618309921886440e+00 0.0000000000000000e+00 0.0000000000000000e+00  1.0648952837620391e+00 0.0000000000000000e+00 0.0000000000000000e+00  1.0696876072490786e+00 0.0000000000000000e+00 0.0000000000000000e+00  1.0746699284946453e+00 0.0000000000000000e+00 0.0000000000000000e+00  1.0782547879066406e+00 0.0000000000000000e+00 0.0000000000000000e+00  1.0803636157321990e+00 0.0000000000000000e+00 0.0000000000000000e+00  1.0809464323000275e+00 0.0000000000000000e+00 0.0000000000000000e+00  1.0799643893374504e+00 0.0000000000000000e+00 0.0000000000000000e+00  1.0774987030873973e+00 0.0000000000000000e+00 0.0000000000000000e+00  1.0753002396184712e+00 0.0000000000000000e+00 0.0000000000000000e+00  1.0738241181268668e+00 0.0000000000000000e+00 0.0000000000000000e+00  1.0735736335739849e+00 0.0000000000000000e+00 0.0000000000000000e+00  1.0758272812469827e+00 0.0000000000000000e+00 0.0000000000000000e+00  1.0798424157252347e+00 0.0000000000000000e+00 0.0000000000000000e+00  1.0856968401303144e+00 0.0000000000000000e+00 0.0000000000000000e+00  1.0909407054807714e+00 0.0000000000000000e+00 0.0000000000000000e+00  1.0960971078750803e+00 0.0000000000000000e+00 0.0000000000000000e+00  1.0994654609946513e+00 0.0000000000000000e+00 0.0000000000000000e+00  1.1018628886141648e+00 0.0000000000000000e+00 0.0000000000000000e+00  1.1019793192257790e+00 0.0000000000000000e+00 0.0000000000000000e+00  1.1018326935049298e+00 0.0000000000000000e+00 0.0000000000000000e+00  1.1007594225591444e+00 0.0000000000000000e+00 0.0000000000000000e+00  1.1011707818025651e+00 -6.2661035267140824e-04 0.0000000000000000e+00  1.0996443217734415e+00 -8.1220180149672015e-04 0.0000000000000000e+00  1.0958059847745705e+00 3.8172091151663946e-04 0.0000000000000000e+00  1.0872016651682010e+00 4.8139660665031184e-03 0.0000000000000000e+00  1.0750209851558661e+00 1.4554791132106100e-02 0.0000000000000000e+00  1.0529310169266914e+00 3.2886678583106052e-02 0.0000000000000000e+00  1.0133123146472662e+00 5.6897557119995043e-02 0.0000000000000000e+00  9.5047964863811085e-01 8.4977979568328296e-02 0.0000000000000000e+00  8.6643399202481541e-01 1.0988302754903471e-01 0.0000000000000000e+00  7.7645906820558097e-01 1.2113741401207409e-01 0.0000000000000000e+00  6.9933234090580965e-01 1.2813002489707304e-01 0.0000000000000000e+00  6.5463791040603825e-01 1.3895171101860523e-01 0.0000000000000000e+00  6.6957687545782529e-01 1.6261461942661831e-01 0.0000000000000000e+00  7.5956281979268636e-01 1.9046741756357982e-01 0.0000000000000000e+00  9.0102206527545070e-01 2.1618016531141179e-01 0.0000000000000000e+00  1.0464757106808849e+00 2.0920673361351405e-01 0.0000000000000000e+00  1.1450987573209570e+00 1.7345547319349827e-01 0.0000000000000000e+00  1.1802590304755594e+00 1.2793171806089720e-01 0.0000000000000000e+00  1.1688391905271853e+00 8.4592910408445798e-02 0.0000000000000000e+00  1.1498238119211104e+00 5.2629088648701562e-02 0.0000000000000000e+00  1.1382216677418742e+00 3.2672114899844645e-02 0.0000000000000000e+00  1.1319936167236249e+00 1.9171818299878421e-02 0.0000000000000000e+00  1.1277834234555173e+00 8.6988967786585814e-03 0.0000000000000000e+00  1.1166473489435347e+00 0.0000000000000000e+00 0.0000000000000000e+00  1.1071068421353973e+00 0.0000000000000000e+00 0.0000000000000000e+00  1.0983550111514708e+00 0.0000000000000000e+00 0.0000000000000000e+00  1.0920624804025370e+00 0.0000000000000000e+00 0.0000000000000000e+00  1.0875189306025221e+00 0.0000000000000000e+00 0.0000000000000000e+00  1.0857135774337163e+00 0.0000000000000000e+00 0.0000000000000000e+00  1.0856711371979995e+00 0.0000000000000000e+00 0.0000000000000000e+00  1.0869185984145457e+00 0.0000000000000000e+00 0.0000000000000000e+00  1.0873870420411558e+00 0.0000000000000000e+00 0.0000000000000000e+00  1.0875712557844439e+00 0.0000000000000000e+00 0.0000000000000000e+00  1.0861272627687311e+00 0.0000000000000000e+00 0.0000000000000000e+00  1.0831097433048729e+00 0.0000000000000000e+00 0.0000000000000000e+00  1.0786868744808060e+00 0.0000000000000000e+00 0.0000000000000000e+00  1.0743812313241461e+00 0.0000000000000000e+00 0.0000000000000000e+00  1.0693437443102543e+00 0.0000000000000000e+00 0.0000000000000000e+00  1.0665545099037967e+00 0.0000000000000000e+00 0.0000000000000000e+00  1.0641852919671970e+00 0.0000000000000000e+00 0.0000000000000000e+00  1.0644357903174078e+00 0.0000000000000000e+00 0.0000000000000000e+00  1.0662741822915833e+00 0.0000000000000000e+00 0.0000000000000000e+00  1.0698439934625377e+00 0.0000000000000000e+00 0.0000000000000000e+00  1.0730692004442832e+00 0.0000000000000000e+00 0.0000000000000000e+00  1.0751064586789090e+00 0.0000000000000000e+00 0.0000000000000000e+00  1.0758270273278818e+00 0.0000000000000000e+00 0.0000000000000000e+00  1.0703906065995406e+00 0.0000000000000000e+00 0.0000000000000000e+00  1.0659357570296062e+00 0.0000000000000000e+00 0.0000000000000000e+00  1.0603664097910626e+00 0.0000000000000000e+00 0.0000000000000000e+00  1.0569748745365475e+00 0.0000000000000000e+00 0.0000000000000000e+00  1.0559364223054741e+00 0.0000000000000000e+00 0.0000000000000000e+00  1.0557143641686972e+00 0.0000000000000000e+00 0.0000000000000000e+00  1.0555992041837485e+00 0.0000000000000000e+00 0.0000000000000000e+00  1.0592718782586992e+00 0.0000000000000000e+00 0.0000000000000000e+00  1.0636156067242943e+00 0.0000000000000000e+00 0.0000000000000000e+00  1.0668533725023075e+00 0.0000000000000000e+00 0.0000000000000000e+00  1.0693173476323623e+00 0.0000000000000000e+00 0.0000000000000000e+00  1.0696276154264579e+00 0.0000000000000000e+00 0.0000000000000000e+00  1.0668599709897197e+00 0.0000000000000000e+00 0.0000000000000000e+00  1.0628249960716147e+00 0.0000000000000000e+00 0.0000000000000000e+00  1.0573787163430608e+00 0.0000000000000000e+00 0.0000000000000000e+00  1.0509398634091676e+00 0.0000000000000000e+00 0.0000000000000000e+00  1.0468096236891529e+00 0.0000000000000000e+00 0.0000000000000000e+00  1.0444721059524853e+00 0.0000000000000000e+00 0.0000000000000000e+00  1.0435323648779153e+00 0.0000000000000000e+00 0.0000000000000000e+00  1.0459120905159689e+00 0.0000000000000000e+00 0.0000000000000000e+00  1.0499643929736271e+00 0.0000000000000000e+00 0.0000000000000000e+00  1.0539764155549776e+00 0.0000000000000000e+00 0.0000000000000000e+00  1.0592439931159554e+00 0.0000000000000000e+00 0.0000000000000000e+00  1.0632448351353638e+00 0.0000000000000000e+00 0.0000000000000000e+00  1.0643313837202106e+00 0.0000000000000000e+00 0.0000000000000000e+00  1.0633560833664206e+00 0.0000000000000000e+00 0.0000000000000000e+00  1.0601796316015402e+00 0.0000000000000000e+00 0.0000000000000000e+00  1.0551334210930770e+00 0.0000000000000000e+00 0.0000000000000000e+00  1.0501614584746946e+00 0.0000000000000000e+00 0.0000000000000000e+00  1.0460196553097527e+00 0.0000000000000000e+00 0.0000000000000000e+00  1.0434412858047883e+00 0.0000000000000000e+00 0.0000000000000000e+00  1.0440018868765450e+00 0.0000000000000000e+00 0.0000000000000000e+00  1.0458973091673895e+00 0.0000000000000000e+00 0.0000000000000000e+00  1.0504273721037802e+00 0.0000000000000000e+00 0.0000000000000000e+00  1.0572369733751421e+00 0.0000000000000000e+00 0.0000000000000000e+00  1.0647085770667584e+00 0.0000000000000000e+00 0.0000000000000000e+00  1.0715571277501097e+00 0.0000000000000000e+00 0.0000000000000000e+00  1.0772055311349256e+00 0.0000000000000000e+00 0.0000000000000000e+00  1.0820269153439019e+00 0.0000000000000000e+00 0.0000000000000000e+00  1.0862544253531068e+00 0.0000000000000000e+00 0.0000000000000000e+00  1.0884521016863260e+00 0.0000000000000000e+00 0.0000000000000000e+00  1.0894715409481144e+00 0.0000000000000000e+00 0.0000000000000000e+00  1.0911360480442813e+00 0.0000000000000000e+00 0.0000000000000000e+00  1.0905363496283844e+00 0.0000000000000000e+00 0.0000000000000000e+00  1.0901722559505793e+00 0.0000000000000000e+00 0.0000000000000000e+00  1.0886528590393008e+00 0.0000000000000000e+00 0.0000000000000000e+00  1.0854593895384088e+00 0.0000000000000000e+00 0.0000000000000000e+00  1.0812928052226589e+00 0.0000000000000000e+00 0.0000000000000000e+00  1.0763049314712647e+00 0.0000000000000000e+00 0.0000000000000000e+00  1.0702942512893898e+00 0.0000000000000000e+00 0.0000000000000000e+00  1.0628295853823970e+00 0.0000000000000000e+00 0.0000000000000000e+00  1.0558863641666765e+00 0.0000000000000000e+00 0.0000000000000000e+00  1.0481553463634432e+00 0.0000000000000000e+00 0.0000000000000000e+00  1.0332691349650316e+00 0.0000000000000000e+00 0.0000000000000000e+00  1.0267661452137791e+00 0.0000000000000000e+00 0.0000000000000000e+00  1.0215825833436591e+00 0.0000000000000000e+00 0.0000000000000000e+00  1.0168935264259078e+00 0.0000000000000000e+00 0.0000000000000000e+00  1.0130743916811347e+00 0.0000000000000000e+00 0.0000000000000000e+00  1.0100609473432394e+00 0.0000000000000000e+00 0.0000000000000000e+00  1.0077836459239518e+00 0.0000000000000000e+00 0.0000000000000000e+00  1.0056030559084510e+00 0.0000000000000000e+00 0.0000000000000000e+00  1.0040968713366167e+00 0.0000000000000000e+00 0.0000000000000000e+00  1.0030795211940760e+00 0.0000000000000000e+00 0.0000000000000000e+00  1.0018820009583103e+00 0.0000000000000000e+00 0.0000000000000000e+00  1.0016952309870151e+00 0.0000000000000000e+00 0.0000000000000000e+00  1.0005880783982679e+00 0.0000000000000000e+00 0.0000000000000000e+00  1.0005087762019533e+00 0.0000000000000000e+00 0.0000000000000000e+00  1.0000178130408635e+00 0.0000000000000000e+00 0.0000000000000000e+00  1.0006225653676561e+00 0.0000000000000000e+00 0.0000000000000000e+00  1.0003075818064577e+00 0.0000000000000000e+00 0.0000000000000000e+00  9.9980627060956295e-01 0.0000000000000000e+00 0.0000000000000000e+00  1.0000001299973607e+00 0.0000000000000000e+00 0.0000000000000000e+00  1.0000001299973607e+00 0.0000000000000000e+00 0.0000000000000000e+00  1.0000001299973607e+00 0.0000000000000000e+00 0.0000000000000000e+00  1.0000001299973607e+00 0.0000000000000000e+00 0.0000000000000000e+00  1.0000001299973607e+00 0.0000000000000000e+00 0.0000000000000000e+00  1.0000001299973607e+00 0.0000000000000000e+00 0.0000000000000000e+00  1.0000001299973607e+00 0.0000000000000000e+00 0.0000000000000000e+00  1.0000001299973607e+00 0.0000000000000000e+00 0.0000000000000000e+00  1.0000001299973607e+00 0.0000000000000000e+00 0.0000000000000000e+00  1.0000001299973607e+00 0.0000000000000000e+00 0.0000000000000000e+00  1.0000001299973607e+00 0.0000000000000000e+00 0.0000000000000000e+00  1.0000001299973607e+00 0.0000000000000000e+00 0.0000000000000000e+00  1.0000001299973607e+00 0.0000000000000000e+00 0.0000000000000000e+00  1.0000001299973607e+00 0.0000000000000000e+00 0.0000000000000000e+00  1.0000001299973607e+00 0.0000000000000000e+00 0.0000000000000000e+00  1.0000001299973607e+00 0.0000000000000000e+00 0.0000000000000000e+00  1.0000001299973607e+00 0.0000000000000000e+00 0.0000000000000000e+00  1.0000001299973607e+00 0.0000000000000000e+00 0.0000000000000000e+00  1.0000001299973607e+00 0.0000000000000000e+00 0.0000000000000000e+00  1.0000001299973607e+00 0.0000000000000000e+00 0.0000000000000000e+00  1.0400163052382416e+00 -9.6425238366333911e-03 0.0000000000000000e+00  1.0368162295074141e+00 -1.9438599119667378e-02 0.0000000000000000e+00  1.0342451120574339e+00 -2.9849806385702712e-02 0.0000000000000000e+00  1.0280054740132278e+00 -4.0721101758555096e-02 0.0000000000000000e+00  1.0214250687010997e+00 -5.5572549780702307e-02 0.0000000000000000e+00  1.0257251424066713e+00 -5.9205927300272528e-02 0.0000000000000000e+00  1.0296899915745383e+00 -6.2930467502380349e-02 0.0000000000000000e+00  1.0346565176715414e+00 -6.6396715475036422e-02 0.0000000000000000e+00  1.0399209632695166e+00 -6.9735727834271066e-02 0.0000000000000000e+00  1.0458215742291341e+00 -7.2700996517662764e-02 0.0000000000000000e+00  1.0523195558491838e+00 -7.5330198298114284e-02 0.0000000000000000e+00  1.0592959365673917e+00 -7.7333893766223474e-02 0.0000000000000000e+00  1.0667994296511876e+00 -7.8818645952356145e-02 0.0000000000000000e+00  1.0744815457346544e+00 -7.9452173582295560e-02 0.0000000000000000e+00  1.0825196474505132e+00 -7.9448943424367022e-02 0.0000000000000000e+00  1.0906552013991151e+00 -7.8680026768952499e-02 0.0000000000000000e+00  1.0989139363994440e+00 -7.6868643726068775e-02 0.0000000000000000e+00  1.1068792493211486e+00 -7.4138900386504461e-02 0.0000000000000000e+00  1.1146302464713616e+00 -7.0682906320364031e-02 0.0000000000000000e+00  1.1220229433622213e+00 -6.6399083736064943e-02 0.0000000000000000e+00  1.1288607978805452e+00 -6.1326593286868104e-02 0.0000000000000000e+00  1.1351585587251236e+00 -5.5585175632243050e-02 0.0000000000000000e+00  1.1408178012595520e+00 -4.9277561403353709e-02 0.0000000000000000e+00  1.1458318983280873e+00 -4.2290986339735048e-02 0.0000000000000000e+00  1.1501454383719072e+00 -3.4998331211230749e-02 0.0000000000000000e+00  1.1537342182655710e+00 -2.7126648612393479e-02 0.0000000000000000e+00  1.1564328116320333e+00 -1.8825502952246703e-02 0.0000000000000000e+00  1.1584249469052543e+00 -1.0242198846009545e-02 0.0000000000000000e+00  1.1593994751719385e+00 -1.4007527041871087e-03 0.0000000000000000e+00  1.1594342732835863e+00 7.6923537450925015e-03 0.0000000000000000e+00  1.1583896326354499e+00 1.6913821614699984e-02 0.0000000000000000e+00  1.1561910255002783e+00 2.6064177742895208e-02 0.0000000000000000e+00  1.1528595636803152e+00 3.5180341595035317e-02 0.0000000000000000e+00  1.1482715052289099e+00 4.4061216857485014e-02 0.0000000000000000e+00  1.1425002579476291e+00 5.2420986847494813e-02 0.0000000000000000e+00  1.1355546241660002e+00 6.0124103372401490e-02 0.