<?xml version="1.0"?>
<VTKFile type="UnstructuredGrid"  version="0.1"  >
<UnstructuredGrid>
<Piece  NumberOfPoints="10199" NumberOfCells="20110">
<Points>
<DataArray  type="Float64"  NumberOfComponents="3"  format="ascii">0 -5 0  8 -5 0  30 -5 0  40 -5 0  40 5 0  30 5 0  8 5 0  0 5 0  8 -2.5 0  15 -2.5 0  30 -2.5 0  30 2.5 0  15 2.5 0  8 2.5 0  10 0.5 0  10 -0.5 0  0 0 0  0.4210526315780956 -5 0  0.8421052631563433 -5 0  1.263157894734281 -5 0  1.684210526311999 -5 0  2.105263157889717 -5 0  2.526315789467435 -5 0  2.947368421045153 -5 0  3.368421052622872 -5 0  3.78947368420059 -5 0  4.210526315779479 -5 0  4.631578947359537 -5 0  5.052631578939595 -5 0  5.473684210519653 -5 0  5.89473684209971 -5 0  6.315789473679768 -5 0  6.736842105259826 -5 0  7.157894736839884 -5 0  7.578947368419942 -5 0  8.407407407405314 -5 0  8.814814814810628 -5 0  9.222222222215942 -5 0  9.629629629621256 -5 0  10.03703703702657 -5 0  10.44444444443188 -5 0  10.8518518518372 -5 0  11.25925925924251 -5 0  11.66666666664783 -5 0  12.07407407405314 -5 0  12.48148148145846 -5 0  12.88888888886377 -5 0  13.29629629626908 -5 0  13.7037037036744 -5 0  14.11111111107971 -5 0  14.51851851848502 -5 0  14.92592592589034 -5 0  15.33333333329565 -5 0  15.74074074070096 -5 0  16.14814814810754 -5 0  16.55555555551614 -5 0  16.96296296292474 -5 0  17.37037037033335 -5 0  17.77777777774195 -5 0  18.18518518515056 -5 0  18.59259259255916 -5 0  18.99999999996776 -5 0  19.40740740737636 -5 0  19.81481481478497 -5 0  20.22222222219357 -5 0  20.62962962960217 -5 0  21.03703703701077 -5 0  21.44444444441937 -5 0  21.85185185182797 -5 0  22.25925925923657 -5 0  22.66666666664518 -5 0  23.07407407405378 -5 0  23.48148148146238 -5 0  23.88888888887098 -5 0  24.29629629627958 -5 0  24.70370370368818 -5 0  25.11111111109678 -5 0  25.51851851850539 -5 0  25.92592592591399 -5 0  26.33333333332259 -5 0  26.74074074073119 -5 0  27.14814814813979 -5 0  27.55555555554839 -5 0  27.96296296295699 -5 0  28.3703703703656 -5 0  28.7777777777742 -5 0  29.1851851851828 -5 0  29.5925925925914 -5 0  30.41666666667852 -5 0  30.83333333335704 -5 0  31.25000000003556 -5 0  31.66666666671408 -5 0  32.08333333338936 -5 0  32.50000000005308 -5 0  32.9166666667168 -5 0  33.33333333338052 -5 0  33.75000000004424 -5 0  34.16666666670795 -5 0  34.58333333337167 -5 0  35.00000000003539 -5 0  35.41666666669911 -5 0  35.83333333336282 -5 0  36.25000000002654 -5 0  36.66666666669026 -5 0  37.08333333335398 -5 0  37.50000000001769 -5 0  37.91666666668141 -5 0  38.33333333334513 -5 0  38.75000000000885 -5 0  39.16666666667257 -5 0  39.58333333333628 -5 0  40 -4.583333333332821 0  40 -4.166666666665642 0  40 -3.74999999999855 0  40 -3.333333333333135 0  40 -2.916666666667806 0  40 -2.500000000002478 0  40 -2.083333333337148 0  40 -1.666666666671818 0  40 -1.250000000006488 0  40 -0.8333333333405228 0  40 -0.4166666666733416 0  40 -6.163070054299169e-12 0  40 0.4166666666610173 0  40 0.8333333333281976 0  40 1.249999999995378 0  40 1.666666666662558 0  40 2.083333333329739 0  40 2.499999999996919 0  40 2.916666666664099 0  40 3.33333333333128 0  40 3.74999999999846 0  40 4.166666666665641 0  40 4.583333333332821 0  39.58333333333628 5 0  39.16666666667256 5 0  38.75000000000885 5 0  38.33333333334513 5 0  37.91666666668141 5 0  37.50000000001769 5 0  37.08333333335398 5 0  36.66666666669025 5 0  36.25000000002654 5 0  35.83333333336282 5 0  35.41666666669911 5 0  35.00000000003539 5 0  34.58333333337167 5 0  34.16666666670795 5 0  33.75000000004424 5 0  33.33333333338052 5 0  32.9166666667168 5 0  32.50000000005308 5 0  32.08333333338936 5 0  31.66666666671408 5 0  31.25000000003556 5 0  30.83333333335704 5 0  30.41666666667852 5 0  29.59259259259259 5 0  29.18518518518519 5 0  28.77777777777778 5 0  28.37037037037037 5 0  27.96296296296296 5 0  27.55555555555556 5 0  27.14814814814815 5 0  26.74074074074074 5 0  26.33333333333333 5 0  25.92592592592593 5 0  25.51851851851852 5 0  25.11111111111111 5 0  24.7037037037037 5 0  24.2962962962963 5 0  23.88888888888889 5 0  23.48148148148148 5 0  23.07407407407408 5 0  22.66666666666667 5 0  22.25925925925926 5 0  21.85185185185185 5 0  21.44444444444445 5 0  21.03703703703704 5 0  20.62962962962963 5 0  20.22222222222222 5 0  19.81481481481482 5 0  19.40740740740741 5 0  19 5 0  18.5925925925926 5 0  18.18518518518519 5 0  17.77777777777778 5 0  17.37037037037037 5 0  16.96296296296296 5 0  16.55555555555556 5 0  16.14814814814815 5 0  15.74074074074074 5 0  15.33333333333333 5 0  14.92592592592593 5 0  14.51851851851852 5 0  14.11111111111111 5 0  13.70370370370371 5 0  13.2962962962963 5 0  12.88888888888889 5 0  12.48148148148148 5 0  12.07407407407408 5 0  11.66666666666667 5 0  11.25925925925926 5 0  10.85185185185185 5 0  10.44444444444445 5 0  10.03703703703704 5 0  9.629629629629633 5 0  9.222222222222221 5 0  8.814814814814817 5 0  8.407407407407408 5 0  7.5789473684193 5 0  7.157894736838599 5 0  6.73684210526082 5 0  6.315789473684795 5 0  5.894736842108769 5 0  5.473684210532742 5 0  5.052631578956715 5 0  4.631578947380689 5 0  4.210526315804662 5 0  3.789473684226299 5 0  3.368421052645599 5 0  2.947368421064898 5 0  2.526315789484198 5 0  2.105263157903499 5 0  1.6842105263228 5 0  1.2631578947421 5 0  0.8421052631613994 5 0  0.4210526315806993 5 0  0 4.545454545454545 0  0 4.09090909090909 0  0 3.636363636363634 0  0 3.18181818181818 0  0 2.727272727272726 0  0 2.272727272727271 0  0 1.818181818181817 0  0 1.363636363636363 0  0 0.9090909090909092 0  0 0.454545454545455 0  0 -0.4545454545450807 0  0 -0.9090909090895867 0  0 -1.363636363633713 0  0 -1.818181818177841 0  0 -2.272727272723127 0  0 -2.727272727269273 0  0 -3.181818181815419 0  0 -3.636363636361564 0  0 -4.090909090907709 0  0 -4.545454545453855 0  8 -4.499999999999999 0  8 -3.999999999999999 0  8 -3.499999999999999 0  8 -3 0  8.137254901963859 -2.5 0  8.274509803926303 -2.5 0  8.411764705886863 -2.5 0  8.549019607849138 -2.5 0  8.686274509809513 -2.5 0  8.82352941176989 -2.5 0  8.960784313730265 -2.5 0  9.098039215690642 -2.5 0  9.235294117651017 -2.5 0  9.372549019611395 -2.5 0  9.50980392157177 -2.5 0  9.647058823532147 -2.5 0  9.784313725492522 -2.5 0  9.921568627452897 -2.5 0  10.05882352941327 -2.5 0  10.19607843137365 -2.5 0  10.33333333333402 -2.5 0  10.4705882352944 -2.5 0  10.60784313725478 -2.5 0  10.74509803921515 -2.5 0  10.88235294117553 -2.5 0  11.0196078431359 -2.5 0  11.15686274509628 -2.5 0  11.29411764705665 -2.5 0  11.43137254901703 -2.5 0  11.56862745097915 -2.5 0  11.70588235294301 -2.5 0  11.84313725490686 -2.5 0  11.98039215687072 -2.5 0  12.11764705883209 -2.5 0  12.25490196079247 -2.5 0  12.39215686275285 -2.5 0  12.52941176471322 -2.5 0  12.6666666666736 -2.5 0  12.80392156863397 -2.5 0  12.94117647059435 -2.5 0  13.07843137255473 -2.5 0  13.2156862745151 -2.5 0  13.35294117647548 -2.5 0  13.49019607843586 -2.5 0  13.62745098039623 -2.5 0  13.76470588235661 -2.5 0  13.90196078431699 -2.5 0  14.03921568627736 -2.5 0  14.17647058823774 -2.5 0  14.31372549019812 -2.5 0  14.45098039215849 -2.5 0  14.58823529411887 -2.5 0  14.72549019607925 -2.5 0  14.86274509803962 -2.5 0  15.20270270270254 -2.5 0  15.40540540540509 -2.5 0  15.60810810810763 -2.5 0  15.81081081081017 -2.5 0  16.01351351351227 -2.5 0  16.21621621621265 -2.5 0  16.41891891891279 -2.5 0  16.62162162161294 -2.5 0  16.82432432431308 -2.5 0  17.02702702701322 -2.5 0  17.22972972971337 -2.5 0  17.43243243241351 -2.5 0  17.63513513511365 -2.5 0  17.83783783781379 -2.5 0  18.04054054051394 -2.5 0  18.24324324321408 -2.5 0  18.44594594591422 -2.5 0  18.64864864861436 -2.5 0  18.85135135131451 -2.5 0  19.05405405401465 -2.5 0  19.25675675671479 -2.5 0  19.45945945941494 -2.5 0  19.66216216211508 -2.5 0  19.86486486481522 -2.5 0  20.06756756751536 -2.5 0  20.27027027021551 -2.5 0  20.47297297291565 -2.5 0  20.6756756756158 -2.5 0  20.87837837831594 -2.5 0  21.08108108101608 -2.5 0  21.28378378371622 -2.5 0  21.48648648641637 -2.5 0  21.68918918911651 -2.5 0  21.89189189181666 -2.5 0  22.0945945945168 -2.5 0  22.29729729721694 -2.5 0  22.49999999991778 -2.5 0  22.70270270262203 -2.5 0  22.90540540532697 -2.5 0  23.10810810803191 -2.5 0  23.31081081073686 -2.5 0  23.5135135134418 -2.5 0  23.71621621614674 -2.5 0  23.91891891885169 -2.5 0  24.12162162155663 -2.5 0  24.32432432426158 -2.5 0  24.52702702696652 -2.5 0  24.72972972967146 -2.5 0  24.93243243237641 -2.5 0  25.13513513508135 -2.5 0  25.3378378377863 -2.5 0  25.54054054049124 -2.5 0  25.74324324319618 -2.5 0  25.94594594590112 -2.5 0  26.14864864860607 -2.5 0  26.35135135131101 -2.5 0  26.55405405401596 -2.5 0  26.7567567567209 -2.5 0  26.95945945942584 -2.5 0  27.16216216213079 -2.5 0  27.36486486483573 -2.5 0  27.56756756754068 -2.5 0  27.77027027024562 -2.5 0  27.97297297295056 -2.5 0  28.1756756756555 -2.5 0  28.37837837836045 -2.5 0  28.5810810810654 -2.5 0  28.78378378377034 -2.5 0  28.98648648647528 -2.5 0  29.18918918918023 -2.5 0  29.39189189188517 -2.5 0  29.59459459459011 -2.5 0  29.79729729729506 -2.5 0  30 -3.000000000000001 0  30 -3.500000000000001 0  30 -4.000000000000001 0  30 -4.5 0  8 4.499999999999999 0  8 3.999999999999999 0  8 3.499999999999999 0  8 3 0  8.137254901963859 2.5 0  8.274509803926303 2.5 0  8.411764705886863 2.5 0  8.549019607849138 2.5 0  8.686274509809513 2.5 0  8.82352941176989 2.5 0  8.960784313730265 2.5 0  9.098039215690642 2.5 0  9.235294117651017 2.5 0  9.372549019611395 2.5 0  9.50980392157177 2.5 0  9.647058823532147 2.5 0  9.784313725492522 2.5 0  9.921568627452897 2.5 0  10.05882352941327 2.5 0  10.19607843137365 2.5 0  10.33333333333402 2.5 0  10.4705882352944 2.5 0  10.60784313725478 2.5 0  10.74509803921515 2.5 0  10.88235294117553 2.5 0  11.0196078431359 2.5 0  11.15686274509628 2.5 0  11.29411764705665 2.5 0  11.43137254901703 2.5 0  11.56862745097915 2.5 0  11.70588235294301 2.5 0  11.84313725490686 2.5 0  11.98039215687072 2.5 0  12.11764705883209 2.5 0  12.25490196079247 2.5 0  1
[...]
<PointData  Vectors="f_17"> 
<DataArray  type="Float64"  Name="f_17"  NumberOfComponents="3" format="ascii">1.0000001314993114e+00 0.0000000000000000e+00 0.0000000000000000e+00  1.0413036686702088e+00 0.0000000000000000e+00 0.0000000000000000e+00  1.0641261987123749e+00 0.0000000000000000e+00 0.0000000000000000e+00  1.0938527964902753e+00 0.0000000000000000e+00 0.0000000000000000e+00  1.0738235479928351e+00 0.0000000000000000e+00 0.0000000000000000e+00  1.0500720263201764e+00 0.0000000000000000e+00 0.0000000000000000e+00  1.0396125106155196e+00 0.0000000000000000e+00 0.0000000000000000e+00  1.0000001314993114e+00 0.0000000000000000e+00 0.0000000000000000e+00  1.0247541476209534e+00 -5.0490404909458296e-02 0.0000000000000000e+00  1.1099020731308431e+00 7.4109963921777086e-02 0.0000000000000000e+00  1.1555018770564347e+00 -2.9856683852046727e-02 0.0000000000000000e+00  9.8966172258687368e-01 -2.7993692986768588e-02 0.0000000000000000e+00  9.9565979018453243e-01 2.1946151847256793e-02 0.0000000000000000e+00  1.0180714064844074e+00 5.1183645263103456e-02 0.0000000000000000e+00  0.0000000000000000e+00 0.0000000000000000e+00 0.0000000000000000e+00  0.0000000000000000e+00 0.0000000000000000e+00 0.0000000000000000e+00  1.0000001314993114e+00 0.0000000000000000e+00 0.0000000000000000e+00  9.9931265550286563e-01 0.0000000000000000e+00 0.0000000000000000e+00  9.9882841040079684e-01 0.0000000000000000e+00 0.0000000000000000e+00  1.0009640740013570e+00 0.0000000000000000e+00 0.0000000000000000e+00  1.0008939583180787e+00 0.0000000000000000e+00 0.0000000000000000e+00  1.0019834446792335e+00 0.0000000000000000e+00 0.0000000000000000e+00  1.0024076406748961e+00 0.0000000000000000e+00 0.0000000000000000e+00  1.0027756230363840e+00 0.0000000000000000e+00 0.0000000000000000e+00  1.0036295451736112e+00 0.0000000000000000e+00 0.0000000000000000e+00  1.0048642273962762e+00 0.0000000000000000e+00 0.0000000000000000e+00  1.0059516630790877e+00 0.0000000000000000e+00 0.0000000000000000e+00  1.0073917890544979e+00 0.0000000000000000e+00 0.0000000000000000e+00  1.0095518620884814e+00 0.0000000000000000e+00 0.0000000000000000e+00  1.0118459265049051e+00 0.0000000000000000e+00 0.0000000000000000e+00  1.0157315645810354e+00 0.0000000000000000e+00 0.0000000000000000e+00  1.0173918044310089e+00 0.0000000000000000e+00 0.0000000000000000e+00  1.0218625641368331e+00 0.0000000000000000e+00 0.0000000000000000e+00  1.0284715887891822e+00 0.0000000000000000e+00 0.0000000000000000e+00  1.0336989936620915e+00 0.0000000000000000e+00 0.0000000000000000e+00  1.0488187659355981e+00 0.0000000000000000e+00 0.0000000000000000e+00  1.0566047286734062e+00 0.0000000000000000e+00 0.0000000000000000e+00  1.0636070997647451e+00 0.0000000000000000e+00 0.0000000000000000e+00  1.0708180738722377e+00 0.0000000000000000e+00 0.0000000000000000e+00  1.0763979565827246e+00 0.0000000000000000e+00 0.0000000000000000e+00  1.0811416211398832e+00 0.0000000000000000e+00 0.0000000000000000e+00  1.0854963566531737e+00 0.0000000000000000e+00 0.0000000000000000e+00  1.0875224803593393e+00 0.0000000000000000e+00 0.0000000000000000e+00  1.0890871923417791e+00 0.0000000000000000e+00 0.0000000000000000e+00  1.0896272179417761e+00 0.0000000000000000e+00 0.0000000000000000e+00  1.0899705663162269e+00 0.0000000000000000e+00 0.0000000000000000e+00  1.0887664954451262e+00 0.0000000000000000e+00 0.0000000000000000e+00  1.0878856882465082e+00 0.0000000000000000e+00 0.0000000000000000e+00  1.0858938262008149e+00 0.0000000000000000e+00 0.0000000000000000e+00  1.0824775569338210e+00 0.0000000000000000e+00 0.0000000000000000e+00  1.0780512406041260e+00 0.0000000000000000e+00 0.0000000000000000e+00  1.0721930121080225e+00 0.0000000000000000e+00 0.0000000000000000e+00  1.0654635851372232e+00 0.0000000000000000e+00 0.0000000000000000e+00  1.0580281846761141e+00 0.0000000000000000e+00 0.0000000000000000e+00  1.0508322125771243e+00 0.0000000000000000e+00 0.0000000000000000e+00  1.0459451434697282e+00 0.0000000000000000e+00 0.0000000000000000e+00  1.0434956192979910e+00 0.0000000000000000e+00 0.0000000000000000e+00  1.0421832001512019e+00 0.0000000000000000e+00 0.0000000000000000e+00  1.0441492922191820e+00 0.0000000000000000e+00 0.0000000000000000e+00  1.0479087691695170e+00 0.0000000000000000e+00 0.0000000000000000e+00  1.0526240659943484e+00 0.0000000000000000e+00 0.0000000000000000e+00  1.0577674110417477e+00 0.0000000000000000e+00 0.0000000000000000e+00  1.0612395423616916e+00 0.0000000000000000e+00 0.0000000000000000e+00  1.0627136131140134e+00 0.0000000000000000e+00 0.0000000000000000e+00  1.0621563724540866e+00 0.0000000000000000e+00 0.0000000000000000e+00  1.0585747630051934e+00 0.0000000000000000e+00 0.0000000000000000e+00  1.0534968702309337e+00 0.0000000000000000e+00 0.0000000000000000e+00  1.0494444128766593e+00 0.0000000000000000e+00 0.0000000000000000e+00  1.0450610193807532e+00 0.0000000000000000e+00 0.0000000000000000e+00  1.0420815064484572e+00 0.0000000000000000e+00 0.0000000000000000e+00  1.0422994319933689e+00 0.0000000000000000e+00 0.0000000000000000e+00  1.0438401201619742e+00 0.0000000000000000e+00 0.0000000000000000e+00  1.0470843842438957e+00 0.0000000000000000e+00 0.0000000000000000e+00  1.0529848928122636e+00 0.0000000000000000e+00 0.0000000000000000e+00  1.0579355481243928e+00 0.0000000000000000e+00 0.0000000000000000e+00  1.0616938033759644e+00 0.0000000000000000e+00 0.0000000000000000e+00  1.0643639853451545e+00 0.0000000000000000e+00 0.0000000000000000e+00  1.0640588398084005e+00 0.0000000000000000e+00 0.0000000000000000e+00  1.0616330605496753e+00 0.0000000000000000e+00 0.0000000000000000e+00  1.0584232997505332e+00 0.0000000000000000e+00 0.0000000000000000e+00  1.0539178910100573e+00 0.0000000000000000e+00 0.0000000000000000e+00  1.0497963006263331e+00 0.0000000000000000e+00 0.0000000000000000e+00  1.0495766637900010e+00 0.0000000000000000e+00 0.0000000000000000e+00  1.0492462120643335e+00 0.0000000000000000e+00 0.0000000000000000e+00  1.0492141564378490e+00 0.0000000000000000e+00 0.0000000000000000e+00  1.0518733191127916e+00 0.0000000000000000e+00 0.0000000000000000e+00  1.0568208981192775e+00 0.0000000000000000e+00 0.0000000000000000e+00  1.0608718393190810e+00 0.0000000000000000e+00 0.0000000000000000e+00  1.0654256560252062e+00 0.0000000000000000e+00 0.0000000000000000e+00  1.0638743528994066e+00 0.0000000000000000e+00 0.0000000000000000e+00  1.0605053864927789e+00 0.0000000000000000e+00 0.0000000000000000e+00  1.0571632617754805e+00 0.0000000000000000e+00 0.0000000000000000e+00  1.0537271212672834e+00 0.0000000000000000e+00 0.0000000000000000e+00  1.0510039930199311e+00 0.0000000000000000e+00 0.0000000000000000e+00  1.0500720962313570e+00 0.0000000000000000e+00 0.0000000000000000e+00  1.0514709993325515e+00 0.0000000000000000e+00 0.0000000000000000e+00  1.0546512602907474e+00 0.0000000000000000e+00 0.0000000000000000e+00  1.0584251856900289e+00 0.0000000000000000e+00 0.0000000000000000e+00  1.0629258772270065e+00 0.0000000000000000e+00 0.0000000000000000e+00  1.0663402435954983e+00 0.0000000000000000e+00 0.0000000000000000e+00  1.0680174019005051e+00 0.0000000000000000e+00 0.0000000000000000e+00  1.0684371194353239e+00 0.0000000000000000e+00 0.0000000000000000e+00  1.0671550582643528e+00 0.0000000000000000e+00 0.0000000000000000e+00  1.0653829621100255e+00 0.0000000000000000e+00 0.0000000000000000e+00  1.0627034842135670e+00 0.0000000000000000e+00 0.0000000000000000e+00  1.0614846144464600e+00 0.0000000000000000e+00 0.0000000000000000e+00  1.0618497615076334e+00 0.0000000000000000e+00 0.0000000000000000e+00  1.0651648740564768e+00 0.0000000000000000e+00 0.0000000000000000e+00  1.0703352161099020e+00 0.0000000000000000e+00 0.0000000000000000e+00  1.0781271864556228e+00 0.0000000000000000e+00 0.0000000000000000e+00  1.0858049698185486e+00 0.0000000000000000e+00 0.0000000000000000e+00  1.0954538588109508e+00 -7.3073103742918822e-03 0.0000000000000000e+00  1.0996931022393968e+00 -1.6135318490162538e-02 0.0000000000000000e+00  1.1077071950611157e+00 -2.8235372690266141e-02 0.0000000000000000e+00  1.1204167963703979e+00 -4.6553342851084520e-02 0.0000000000000000e+00  1.1423909366448906e+00 -7.6026763259547200e-02 0.0000000000000000e+00  1.1620634881378009e+00 -1.1610250781230283e-01 0.0000000000000000e+00  1.1538426473988244e+00 -1.6340269859797502e-01 0.0000000000000000e+00  1.0913222647458336e+00 -2.0209099951124854e-01 0.0000000000000000e+00  9.7404078748713663e-01 -2.1479344692362551e-01 0.0000000000000000e+00  8.4359976805534187e-01 -1.9583882818525655e-01 0.0000000000000000e+00  7.4859235282309422e-01 -1.6751821244597620e-01 0.0000000000000000e+00  7.1705284633729827e-01 -1.4434985239582523e-01 0.0000000000000000e+00  7.3895132492980009e-01 -1.3158946502982441e-01 0.0000000000000000e+00  7.9577448096537351e-01 -1.1936350887556083e-01 0.0000000000000000e+00  8.6587680968304703e-01 -1.0652910312809515e-01 0.0000000000000000e+00  9.3380510228211400e-01 -8.2103547367132934e-02 0.0000000000000000e+00  9.8626787667836158e-01 -5.7194200779237946e-02 0.0000000000000000e+00  1.0229697704819565e+00 -3.5623668531464765e-02 0.0000000000000000e+00  1.0461457313897748e+00 -1.9635979475997326e-02 0.0000000000000000e+00  1.0608772425031796e+00 -1.0135639116972992e-02 0.0000000000000000e+00  1.0684810744191744e+00 -4.6788063635820687e-03 0.0000000000000000e+00  1.0727256978076261e+00 -1.9116399449706331e-03 0.0000000000000000e+00  1.0739463448088264e+00 -6.3814483037356081e-04 0.0000000000000000e+00  1.0746684685730203e+00 0.0000000000000000e+00 0.0000000000000000e+00  1.0762714507478734e+00 0.0000000000000000e+00 0.0000000000000000e+00  1.0776352000691403e+00 0.0000000000000000e+00 0.0000000000000000e+00  1.0781934230353432e+00 0.0000000000000000e+00 0.0000000000000000e+00  1.0764678231499973e+00 0.0000000000000000e+00 0.0000000000000000e+00  1.0734310375418690e+00 0.0000000000000000e+00 0.0000000000000000e+00  1.0691882218630613e+00 0.0000000000000000e+00 0.0000000000000000e+00  1.0643762292327392e+00 0.0000000000000000e+00 0.0000000000000000e+00  1.0593394167934933e+00 0.0000000000000000e+00 0.0000000000000000e+00  1.0558614209108228e+00 0.0000000000000000e+00 0.0000000000000000e+00  1.0543825676333280e+00 0.0000000000000000e+00 0.0000000000000000e+00  1.0547682683343205e+00 0.0000000000000000e+00 0.0000000000000000e+00  1.0570628017115078e+00 0.0000000000000000e+00 0.0000000000000000e+00  1.0608822746807189e+00 0.0000000000000000e+00 0.0000000000000000e+00  1.0639346695576857e+00 0.0000000000000000e+00 0.0000000000000000e+00  1.0667917639656535e+00 0.0000000000000000e+00 0.0000000000000000e+00  1.0666613267203870e+00 0.0000000000000000e+00 0.0000000000000000e+00  1.0651221079819142e+00 0.0000000000000000e+00 0.0000000000000000e+00  1.0617049771470417e+00 0.0000000000000000e+00 0.0000000000000000e+00  1.0578901120534268e+00 0.0000000000000000e+00 0.0000000000000000e+00  1.0539684600103871e+00 0.0000000000000000e+00 0.0000000000000000e+00  1.0504935223420344e+00 0.0000000000000000e+00 0.0000000000000000e+00  1.0493830361895862e+00 0.0000000000000000e+00 0.0000000000000000e+00  1.0517735709859755e+00 0.0000000000000000e+00 0.0000000000000000e+00  1.0555734458738262e+00 0.0000000000000000e+00 0.0000000000000000e+00  1.0585082097709129e+00 0.0000000000000000e+00 0.0000000000000000e+00  1.0623019064791348e+00 0.0000000000000000e+00 0.0000000000000000e+00  1.0653809448200653e+00 0.0000000000000000e+00 0.0000000000000000e+00  1.0650910428418037e+00 0.0000000000000000e+00 0.0000000000000000e+00  1.0608691714309475e+00 0.0000000000000000e+00 0.0000000000000000e+00  1.0575023767675811e+00 0.0000000000000000e+00 0.0000000000000000e+00  1.0533489084509751e+00 0.0000000000000000e+00 0.0000000000000000e+00  1.0487984565261248e+00 0.0000000000000000e+00 0.0000000000000000e+00  1.0462667083237045e+00 0.0000000000000000e+00 0.0000000000000000e+00  1.0456598997573026e+00 0.0000000000000000e+00 0.0000000000000000e+00  1.0464175574389771e+00 0.0000000000000000e+00 0.0000000000000000e+00  1.0496960771681738e+00 0.0000000000000000e+00 0.0000000000000000e+00  1.0539679539610527e+00 0.0000000000000000e+00 0.0000000000000000e+00  1.0574096273293079e+00 0.0000000000000000e+00 0.0000000000000000e+00  1.0610547796820220e+00 0.0000000000000000e+00 0.0000000000000000e+00  1.0626552428373959e+00 0.0000000000000000e+00 0.0000000000000000e+00  1.0610074302508405e+00 0.0000000000000000e+00 0.0000000000000000e+00  1.0579650169128219e+00 0.0000000000000000e+00 0.0000000000000000e+00  1.0531199352408007e+00 0.0000000000000000e+00 0.0000000000000000e+00  1.0465816067338458e+00 0.0000000000000000e+00 0.0000000000000000e+00  1.0422174736833898e+00 0.0000000000000000e+00 0.0000000000000000e+00  1.0393027043237926e+00 0.0000000000000000e+00 0.0000000000000000e+00  1.0378995958943855e+00 0.0000000000000000e+00 0.0000000000000000e+00  1.0394445677579023e+00 0.0000000000000000e+00 0.0000000000000000e+00  1.0432305225868841e+00 0.0000000000000000e+00 0.0000000000000000e+00  1.0482149209373928e+00 0.0000000000000000e+00 0.0000000000000000e+00  1.0541872892832467e+00 0.0000000000000000e+00 0.0000000000000000e+00  1.0597553100100017e+00 0.0000000000000000e+00 0.0000000000000000e+00  1.0636901675937134e+00 0.0000000000000000e+00 0.0000000000000000e+00  1.0664490512159341e+00 0.0000000000000000e+00 0.0000000000000000e+00  1.0660712135612744e+00 0.0000000000000000e+00 0.0000000000000000e+00  1.0644437475359716e+00 0.0000000000000000e+00 0.0000000000000000e+00  1.0629632072135071e+00 0.0000000000000000e+00 0.0000000000000000e+00  1.0615537739216774e+00 0.0000000000000000e+00 0.0000000000000000e+00  1.0608341105540464e+00 0.0000000000000000e+00 0.0000000000000000e+00  1.0615335762205691e+00 0.0000000000000000e+00 0.0000000000000000e+00  1.0645744347998118e+00 0.0000000000000000e+00 0.0000000000000000e+00  1.0701217386681754e+00 0.0000000000000000e+00 0.0000000000000000e+00  1.0760808605181023e+00 0.0000000000000000e+00 0.0000000000000000e+00  1.0820981296239103e+00 0.0000000000000000e+00 0.0000000000000000e+00  1.0890217039802617e+00 0.0000000000000000e+00 0.0000000000000000e+00  1.0928499621815522e+00 0.0000000000000000e+00 0.0000000000000000e+00  1.0955953274158956e+00 0.0000000000000000e+00 0.0000000000000000e+00  1.0956219341805840e+00 0.0000000000000000e+00 0.0000000000000000e+00  1.0927201539692775e+00 0.0000000000000000e+00 0.0000000000000000e+00  1.0877597321820942e+00 0.0000000000000000e+00 0.0000000000000000e+00  1.0813544966958972e+00 0.0000000000000000e+00 0.0000000000000000e+00  1.0737654241681682e+00 0.0000000000000000e+00 0.0000000000000000e+00  1.0646991497823490e+00 0.0000000000000000e+00 0.0000000000000000e+00  1.0564896171095493e+00 0.0000000000000000e+00 0.0000000000000000e+00  1.0477864104409331e+00 0.0000000000000000e+00 0.0000000000000000e+00  1.0318250169668328e+00 0.0000000000000000e+00 0.0000000000000000e+00  1.0251816959186375e+00 0.0000000000000000e+00 0.0000000000000000e+00  1.0199783192673353e+00 0.0000000000000000e+00 0.0000000000000000e+00  1.0153617765677490e+00 0.0000000000000000e+00 0.0000000000000000e+00  1.0115873560120452e+00 0.0000000000000000e+00 0.0000000000000000e+00  1.0086231225049249e+00 0.0000000000000000e+00 0.0000000000000000e+00  1.0063733930718877e+00 0.0000000000000000e+00 0.0000000000000000e+00  1.0041798189388045e+00 0.0000000000000000e+00 0.0000000000000000e+00  1.0026958122173160e+00 0.0000000000000000e+00 0.0000000000000000e+00  1.0016698125767858e+00 0.0000000000000000e+00 0.0000000000000000e+00  1.0005419720150448e+00 0.0000000000000000e+00 0.0000000000000000e+00  1.0004802328908284e+00 0.0000000000000000e+00 0.0000000000000000e+00  9.9955875955939710e-01 0.0000000000000000e+00 0.0000000000000000e+00  9.9968544138292703e-01 0.0000000000000000e+00 0.0000000000000000e+00  9.9945820140001684e-01 0.0000000000000000e+00 0.0000000000000000e+00  1.0002848427042239e+00 0.0000000000000000e+00 0.0000000000000000e+00  1.0001611658911815e+00 0.0000000000000000e+00 0.0000000000000000e+00  9.9978511396408298e-01 0.0000000000000000e+00 0.0000000000000000e+00  1.0000001314993114e+00 0.0000000000000000e+00 0.0000000000000000e+00  1.0000001314993114e+00 0.0000000000000000e+00 0.0000000000000000e+00  1.0000001314993114e+00 0.0000000000000000e+00 0.0000000000000000e+00  1.0000001314993114e+00 0.0000000000000000e+00 0.0000000000000000e+00  1.0000001314993114e+00 0.0000000000000000e+00 0.0000000000000000e+00  1.0000001314993114e+00 0.0000000000000000e+00 0.0000000000000000e+00  1.0000001314993114e+00 0.0000000000000000e+00 0.0000000000000000e+00  1.0000001314993114e+00 0.0000000000000000e+00 0.0000000000000000e+00  1.0000001314993114e+00 0.0000000000000000e+00 0.0000000000000000e+00  1.0000001314993114e+00 0.0000000000000000e+00 0.0000000000000000e+00  1.0000001314993114e+00 0.0000000000000000e+00 0.0000000000000000e+00  1.0000001314993114e+00 0.0000000000000000e+00 0.0000000000000000e+00  1.0000001314993114e+00 0.0000000000000000e+00 0.0000000000000000e+00  1.0000001314993114e+00 0.0000000000000000e+00 0.0000000000000000e+00  1.0000001314993114e+00 0.0000000000000000e+00 0.0000000000000000e+00  1.0000001314993114e+00 0.0000000000000000e+00 0.0000000000000000e+00  1.0000001314993114e+00 0.0000000000000000e+00 0.0000000000000000e+00  1.0000001314993114e+00 0.0000000000000000e+00 0.0000000000000000e+00  1.0000001314993114e+00 0.0000000000000000e+00 0.0000000000000000e+00  1.0000001314993114e+00 0.0000000000000000e+00 0.0000000000000000e+00  1.0408065368336326e+00 -8.8774791884941827e-03 0.0000000000000000e+00  1.0382293262410938e+00 -1.8029419846360407e-02 0.0000000000000000e+00  1.0366865260508229e+00 -2.8232142835192115e-02 0.0000000000000000e+00  1.0319935268671105e+00 -3.9017899401827726e-02 0.0000000000000000e+00  1.0276248951285740e+00 -5.3754685767312835e-02 0.0000000000000000e+00  1.0323163525438168e+00 -5.6595365125384760e-02 0.0000000000000000e+00  1.0365265233644769e+00 -5.9442137152139682e-02 0.0000000000000000e+00  1.0417638897748969e+00 -6.1868519719705591e-02 0.0000000000000000e+00  1.0471856281531731e+00 -6.4057891153069604e-02 0.0000000000000000e+00  1.0531779761599953e+00 -6.5699296439233029e-02 0.0000000000000000e+00  1.0596665438816981e+00 -6.6890923103547884e-02 0.0000000000000000e+00  1.0664548757023538e+00 -6.7299717169685067e-02 0.0000000000000000e+00  1.0736438150864041e+00 -6.7035611770390996e-02 0.0000000000000000e+00  1.0807278621897216e+00 -6.5765852277806888e-02 0.0000000000000000e+00  1.0879422823633509e+00 -6.3777551682027755e-02 0.0000000000000000e+00  1.0948864786573538e+00 -6.0983241820971021e-02 0.0000000000000000e+00  1.1016586509238619e+00 -5.7036571213996516e-02 0.0000000000000000e+00  1.1076946293981882e+00 -5.2129047602970574e-02 0.0000000000000000e+00  1.1130304698242284e+00 -4.6630450777495419e-02 0.0000000000000000e+00  1.1175085163118585e+00 -4.0441437302796278e-02 0.0000000000000000e+00  1.1208952175982843e+00 -3.3740183802039810e-02 0.0000000000000000e+00  1.1231270982543609e+00 -2.6723072870629704e-02 0.0000000000000000e+00  1.1242372346369041e+00 -1.9718187189501808e-02 0.0000000000000000e+00  1.1241385082465580e+00 -1.2619532848733048e-02 0.0000000000000000e+00  1.1228994149555855e+00 -6.2082656753019603e-03 0.0000000000000000e+00  1.1205788534759997e+00 -7.9930350802696925e-06 0.0000000000000000e+00  1.1171960049230385e+00 5.4212571418593616e-03 0.0000000000000000e+00  1.1131797889219273e+00 9.7421573519001093e-03 0.0000000000000000e+00  1.1084690619629627e+00 1.2932342347379611e-02 0.0000000000000000e+00  1.1033993619955504e+00 1.4930874924654265e-02 0.0000000000000000e+00  1.0982089865391107e+00 1.5766743361638507e-02 0.0000000000000000e+00  1.0932221140644336e+00 1.5212951853445079e-02 0.0000000000000000e+00  1.0885580592668815e+00 1.3509955794417548e-02 0.0000000000000000e+00  1.0846560248568768e+00 1.0790983788857013e-02 0.0000000000000000e+00  1.0817437816118383e+00 7.0449606852795174e-03 0.0000000000000000e+00  1.0799220569513572e+00 2.68684