<?xml version="1.0"?>
<VTKFile type="UnstructuredGrid"  version="0.1"  >
<UnstructuredGrid>
<Piece  NumberOfPoints="10199" NumberOfCells="20110">
<Points>
<DataArray  type="Float64"  NumberOfComponents="3"  format="ascii">0 -5 0  8 -5 0  30 -5 0  40 -5 0  40 5 0  30 5 0  8 5 0  0 5 0  8 -2.5 0  15 -2.5 0  30 -2.5 0  30 2.5 0  15 2.5 0  8 2.5 0  10 0.5 0  10 -0.5 0  0 0 0  0.4210526315780956 -5 0  0.8421052631563433 -5 0  1.263157894734281 -5 0  1.684210526311999 -5 0  2.105263157889717 -5 0  2.526315789467435 -5 0  2.947368421045153 -5 0  3.368421052622872 -5 0  3.78947368420059 -5 0  4.210526315779479 -5 0  4.631578947359537 -5 0  5.052631578939595 -5 0  5.473684210519653 -5 0  5.89473684209971 -5 0  6.315789473679768 -5 0  6.736842105259826 -5 0  7.157894736839884 -5 0  7.578947368419942 -5 0  8.407407407405314 -5 0  8.814814814810628 -5 0  9.222222222215942 -5 0  9.629629629621256 -5 0  10.03703703702657 -5 0  10.44444444443188 -5 0  10.8518518518372 -5 0  11.25925925924251 -5 0  11.66666666664783 -5 0  12.07407407405314 -5 0  12.48148148145846 -5 0  12.88888888886377 -5 0  13.29629629626908 -5 0  13.7037037036744 -5 0  14.11111111107971 -5 0  14.51851851848502 -5 0  14.92592592589034 -5 0  15.33333333329565 -5 0  15.74074074070096 -5 0  16.14814814810754 -5 0  16.55555555551614 -5 0  16.96296296292474 -5 0  17.37037037033335 -5 0  17.77777777774195 -5 0  18.18518518515056 -5 0  18.59259259255916 -5 0  18.99999999996776 -5 0  19.40740740737636 -5 0  19.81481481478497 -5 0  20.22222222219357 -5 0  20.62962962960217 -5 0  21.03703703701077 -5 0  21.44444444441937 -5 0  21.85185185182797 -5 0  22.25925925923657 -5 0  22.66666666664518 -5 0  23.07407407405378 -5 0  23.48148148146238 -5 0  23.88888888887098 -5 0  24.29629629627958 -5 0  24.70370370368818 -5 0  25.11111111109678 -5 0  25.51851851850539 -5 0  25.92592592591399 -5 0  26.33333333332259 -5 0  26.74074074073119 -5 0  27.14814814813979 -5 0  27.55555555554839 -5 0  27.96296296295699 -5 0  28.3703703703656 -5 0  28.7777777777742 -5 0  29.1851851851828 -5 0  29.5925925925914 -5 0  30.41666666667852 -5 0  30.83333333335704 -5 0  31.25000000003556 -5 0  31.66666666671408 -5 0  32.08333333338936 -5 0  32.50000000005308 -5 0  32.9166666667168 -5 0  33.33333333338052 -5 0  33.75000000004424 -5 0  34.16666666670795 -5 0  34.58333333337167 -5 0  35.00000000003539 -5 0  35.41666666669911 -5 0  35.83333333336282 -5 0  36.25000000002654 -5 0  36.66666666669026 -5 0  37.08333333335398 -5 0  37.50000000001769 -5 0  37.91666666668141 -5 0  38.33333333334513 -5 0  38.75000000000885 -5 0  39.16666666667257 -5 0  39.58333333333628 -5 0  40 -4.583333333332821 0  40 -4.166666666665642 0  40 -3.74999999999855 0  40 -3.333333333333135 0  40 -2.916666666667806 0  40 -2.500000000002478 0  40 -2.083333333337148 0  40 -1.666666666671818 0  40 -1.250000000006488 0  40 -0.8333333333405228 0  40 -0.4166666666733416 0  40 -6.163070054299169e-12 0  40 0.4166666666610173 0  40 0.8333333333281976 0  40 1.249999999995378 0  40 1.666666666662558 0  40 2.083333333329739 0  40 2.499999999996919 0  40 2.916666666664099 0  40 3.33333333333128 0  40 3.74999999999846 0  40 4.166666666665641 0  40 4.583333333332821 0  39.58333333333628 5 0  39.16666666667256 5 0  38.75000000000885 5 0  38.33333333334513 5 0  37.91666666668141 5 0  37.50000000001769 5 0  37.08333333335398 5 0  36.66666666669025 5 0  36.25000000002654 5 0  35.83333333336282 5 0  35.41666666669911 5 0  35.00000000003539 5 0  34.58333333337167 5 0  34.16666666670795 5 0  33.75000000004424 5 0  33.33333333338052 5 0  32.9166666667168 5 0  32.50000000005308 5 0  32.08333333338936 5 0  31.66666666671408 5 0  31.25000000003556 5 0  30.83333333335704 5 0  30.41666666667852 5 0  29.59259259259259 5 0  29.18518518518519 5 0  28.77777777777778 5 0  28.37037037037037 5 0  27.96296296296296 5 0  27.55555555555556 5 0  27.14814814814815 5 0  26.74074074074074 5 0  26.33333333333333 5 0  25.92592592592593 5 0  25.51851851851852 5 0  25.11111111111111 5 0  24.7037037037037 5 0  24.2962962962963 5 0  23.88888888888889 5 0  23.48148148148148 5 0  23.07407407407408 5 0  22.66666666666667 5 0  22.25925925925926 5 0  21.85185185185185 5 0  21.44444444444445 5 0  21.03703703703704 5 0  20.62962962962963 5 0  20.22222222222222 5 0  19.81481481481482 5 0  19.40740740740741 5 0  19 5 0  18.5925925925926 5 0  18.18518518518519 5 0  17.77777777777778 5 0  17.37037037037037 5 0  16.96296296296296 5 0  16.55555555555556 5 0  16.14814814814815 5 0  15.74074074074074 5 0  15.33333333333333 5 0  14.92592592592593 5 0  14.51851851851852 5 0  14.11111111111111 5 0  13.70370370370371 5 0  13.2962962962963 5 0  12.88888888888889 5 0  12.48148148148148 5 0  12.07407407407408 5 0  11.66666666666667 5 0  11.25925925925926 5 0  10.85185185185185 5 0  10.44444444444445 5 0  10.03703703703704 5 0  9.629629629629633 5 0  9.222222222222221 5 0  8.814814814814817 5 0  8.407407407407408 5 0  7.5789473684193 5 0  7.157894736838599 5 0  6.73684210526082 5 0  6.315789473684795 5 0  5.894736842108769 5 0  5.473684210532742 5 0  5.052631578956715 5 0  4.631578947380689 5 0  4.210526315804662 5 0  3.789473684226299 5 0  3.368421052645599 5 0  2.947368421064898 5 0  2.526315789484198 5 0  2.105263157903499 5 0  1.6842105263228 5 0  1.2631578947421 5 0  0.8421052631613994 5 0  0.4210526315806993 5 0  0 4.545454545454545 0  0 4.09090909090909 0  0 3.636363636363634 0  0 3.18181818181818 0  0 2.727272727272726 0  0 2.272727272727271 0  0 1.818181818181817 0  0 1.363636363636363 0  0 0.9090909090909092 0  0 0.454545454545455 0  0 -0.4545454545450807 0  0 -0.9090909090895867 0  0 -1.363636363633713 0  0 -1.818181818177841 0  0 -2.272727272723127 0  0 -2.727272727269273 0  0 -3.181818181815419 0  0 -3.636363636361564 0  0 -4.090909090907709 0  0 -4.545454545453855 0  8 -4.499999999999999 0  8 -3.999999999999999 0  8 -3.499999999999999 0  8 -3 0  8.137254901963859 -2.5 0  8.274509803926303 -2.5 0  8.411764705886863 -2.5 0  8.549019607849138 -2.5 0  8.686274509809513 -2.5 0  8.82352941176989 -2.5 0  8.960784313730265 -2.5 0  9.098039215690642 -2.5 0  9.235294117651017 -2.5 0  9.372549019611395 -2.5 0  9.50980392157177 -2.5 0  9.647058823532147 -2.5 0  9.784313725492522 -2.5 0  9.921568627452897 -2.5 0  10.05882352941327 -2.5 0  10.19607843137365 -2.5 0  10.33333333333402 -2.5 0  10.4705882352944 -2.5 0  10.60784313725478 -2.5 0  10.74509803921515 -2.5 0  10.88235294117553 -2.5 0  11.0196078431359 -2.5 0  11.15686274509628 -2.5 0  11.29411764705665 -2.5 0  11.43137254901703 -2.5 0  11.56862745097915 -2.5 0  11.70588235294301 -2.5 0  11.84313725490686 -2.5 0  11.98039215687072 -2.5 0  12.11764705883209 -2.5 0  12.25490196079247 -2.5 0  12.39215686275285 -2.5 0  12.52941176471322 -2.5 0  12.6666666666736 -2.5 0  12.80392156863397 -2.5 0  12.94117647059435 -2.5 0  13.07843137255473 -2.5 0  13.2156862745151 -2.5 0  13.35294117647548 -2.5 0  13.49019607843586 -2.5 0  13.62745098039623 -2.5 0  13.76470588235661 -2.5 0  13.90196078431699 -2.5 0  14.03921568627736 -2.5 0  14.17647058823774 -2.5 0  14.31372549019812 -2.5 0  14.45098039215849 -2.5 0  14.58823529411887 -2.5 0  14.72549019607925 -2.5 0  14.86274509803962 -2.5 0  15.20270270270254 -2.5 0  15.40540540540509 -2.5 0  15.60810810810763 -2.5 0  15.81081081081017 -2.5 0  16.01351351351227 -2.5 0  16.21621621621265 -2.5 0  16.41891891891279 -2.5 0  16.62162162161294 -2.5 0  16.82432432431308 -2.5 0  17.02702702701322 -2.5 0  17.22972972971337 -2.5 0  17.43243243241351 -2.5 0  17.63513513511365 -2.5 0  17.83783783781379 -2.5 0  18.04054054051394 -2.5 0  18.24324324321408 -2.5 0  18.44594594591422 -2.5 0  18.64864864861436 -2.5 0  18.85135135131451 -2.5 0  19.05405405401465 -2.5 0  19.25675675671479 -2.5 0  19.45945945941494 -2.5 0  19.66216216211508 -2.5 0  19.86486486481522 -2.5 0  20.06756756751536 -2.5 0  20.27027027021551 -2.5 0  20.47297297291565 -2.5 0  20.6756756756158 -2.5 0  20.87837837831594 -2.5 0  21.08108108101608 -2.5 0  21.28378378371622 -2.5 0  21.48648648641637 -2.5 0  21.68918918911651 -2.5 0  21.89189189181666 -2.5 0  22.0945945945168 -2.5 0  22.29729729721694 -2.5 0  22.49999999991778 -2.5 0  22.70270270262203 -2.5 0  22.90540540532697 -2.5 0  23.10810810803191 -2.5 0  23.31081081073686 -2.5 0  23.5135135134418 -2.5 0  23.71621621614674 -2.5 0  23.91891891885169 -2.5 0  24.12162162155663 -2.5 0  24.32432432426158 -2.5 0  24.52702702696652 -2.5 0  24.72972972967146 -2.5 0  24.93243243237641 -2.5 0  25.13513513508135 -2.5 0  25.3378378377863 -2.5 0  25.54054054049124 -2.5 0  25.74324324319618 -2.5 0  25.94594594590112 -2.5 0  26.14864864860607 -2.5 0  26.35135135131101 -2.5 0  26.55405405401596 -2.5 0  26.7567567567209 -2.5 0  26.95945945942584 -2.5 0  27.16216216213079 -2.5 0  27.36486486483573 -2.5 0  27.56756756754068 -2.5 0  27.77027027024562 -2.5 0  27.97297297295056 -2.5 0  28.1756756756555 -2.5 0  28.37837837836045 -2.5 0  28.5810810810654 -2.5 0  28.78378378377034 -2.5 0  28.98648648647528 -2.5 0  29.18918918918023 -2.5 0  29.39189189188517 -2.5 0  29.59459459459011 -2.5 0  29.79729729729506 -2.5 0  30 -3.000000000000001 0  30 -3.500000000000001 0  30 -4.000000000000001 0  30 -4.5 0  8 4.499999999999999 0  8 3.999999999999999 0  8 3.499999999999999 0  8 3 0  8.137254901963859 2.5 0  8.274509803926303 2.5 0  8.411764705886863 2.5 0  8.549019607849138 2.5 0  8.686274509809513 2.5 0  8.82352941176989 2.5 0  8.960784313730265 2.5 0  9.098039215690642 2.5 0  9.235294117651017 2.5 0  9.372549019611395 2.5 0  9.50980392157177 2.5 0  9.647058823532147 2.5 0  9.784313725492522 2.5 0  9.921568627452897 2.5 0  10.05882352941327 2.5 0  10.19607843137365 2.5 0  10.33333333333402 2.5 0  10.4705882352944 2.5 0  10.60784313725478 2.5 0  10.74509803921515 2.5 0  10.88235294117553 2.5 0  11.0196078431359 2.5 0  11.15686274509628 2.5 0  11.29411764705665 2.5 0  11.43137254901703 2.5 0  11.56862745097915 2.5 0  11.70588235294301 2.5 0  11.84313725490686 2.5 0  11.98039215687072 2.5 0  12.11764705883209 2.5 0  12.25490196079247 2.5 0  1
[...]
<PointData  Vectors="f_17"> 
<DataArray  type="Float64"  Name="f_17"  NumberOfComponents="3" format="ascii">1.0000001313984577e+00 0.0000000000000000e+00 0.0000000000000000e+00  1.0402029407479061e+00 0.0000000000000000e+00 0.0000000000000000e+00  1.0652388885250461e+00 0.0000000000000000e+00 0.0000000000000000e+00  1.0940023241222923e+00 0.0000000000000000e+00 0.0000000000000000e+00  1.0727470622025466e+00 0.0000000000000000e+00 0.0000000000000000e+00  1.0492072968837265e+00 0.0000000000000000e+00 0.0000000000000000e+00  1.0406649807901374e+00 0.0000000000000000e+00 0.0000000000000000e+00  1.0000001313984577e+00 0.0000000000000000e+00 0.0000000000000000e+00  1.0228425637907383e+00 -4.9630457989704987e-02 0.0000000000000000e+00  1.0748512847765730e+00 9.0021703712606732e-02 0.0000000000000000e+00  1.1454850364667399e+00 1.9821231286009183e-02 0.0000000000000000e+00  9.8725547355295984e-01 1.3805519188671901e-02 0.0000000000000000e+00  1.0287029073371623e+00 5.3843972981630808e-02 0.0000000000000000e+00  1.0199731150344238e+00 5.1985451397441249e-02 0.0000000000000000e+00  0.0000000000000000e+00 0.0000000000000000e+00 0.0000000000000000e+00  0.0000000000000000e+00 0.0000000000000000e+00 0.0000000000000000e+00  1.0000001313984577e+00 0.0000000000000000e+00 0.0000000000000000e+00  9.9930945988223019e-01 0.0000000000000000e+00 0.0000000000000000e+00  9.9881659700662406e-01 0.0000000000000000e+00 0.0000000000000000e+00  1.0009374197991423e+00 0.0000000000000000e+00 0.0000000000000000e+00  1.0008213574379374e+00 0.0000000000000000e+00 0.0000000000000000e+00  1.0018428493952078e+00 0.0000000000000000e+00 0.0000000000000000e+00  1.0021818406304457e+00 0.0000000000000000e+00 0.0000000000000000e+00  1.0024488547416159e+00 0.0000000000000000e+00 0.0000000000000000e+00  1.0032008677233593e+00 0.0000000000000000e+00 0.0000000000000000e+00  1.0043340406502292e+00 0.0000000000000000e+00 0.0000000000000000e+00  1.0053354572293172e+00 0.0000000000000000e+00 0.0000000000000000e+00  1.0066980864698898e+00 0.0000000000000000e+00 0.0000000000000000e+00  1.0088005365664989e+00 0.0000000000000000e+00 0.0000000000000000e+00  1.0110408563923035e+00 0.0000000000000000e+00 0.0000000000000000e+00  1.0148773617900739e+00 0.0000000000000000e+00 0.0000000000000000e+00  1.0164816630258871e+00 0.0000000000000000e+00 0.0000000000000000e+00  1.0208966885850643e+00 0.0000000000000000e+00 0.0000000000000000e+00  1.0274510120342939e+00 0.0000000000000000e+00 0.0000000000000000e+00  1.0326274610786412e+00 0.0000000000000000e+00 0.0000000000000000e+00  1.0477412616312731e+00 0.0000000000000000e+00 0.0000000000000000e+00  1.0556328472924681e+00 0.0000000000000000e+00 0.0000000000000000e+00  1.0628580779562800e+00 0.0000000000000000e+00 0.0000000000000000e+00  1.0704434023257774e+00 0.0000000000000000e+00 0.0000000000000000e+00  1.0765700380357341e+00 0.0000000000000000e+00 0.0000000000000000e+00  1.0820445159010899e+00 0.0000000000000000e+00 0.0000000000000000e+00  1.0872634077223700e+00 0.0000000000000000e+00 0.0000000000000000e+00  1.0901956375122637e+00 0.0000000000000000e+00 0.0000000000000000e+00  1.0925863290300863e+00 0.0000000000000000e+00 0.0000000000000000e+00  1.0936552608794765e+00 0.0000000000000000e+00 0.0000000000000000e+00  1.0940519360371281e+00 0.0000000000000000e+00 0.0000000000000000e+00  1.0922627481398555e+00 0.0000000000000000e+00 0.0000000000000000e+00  1.0901570034744434e+00 0.0000000000000000e+00 0.0000000000000000e+00  1.0863756415877410e+00 0.0000000000000000e+00 0.0000000000000000e+00  1.0809545180572722e+00 0.0000000000000000e+00 0.0000000000000000e+00  1.0746545129483853e+00 0.0000000000000000e+00 0.0000000000000000e+00  1.0674314893221812e+00 0.0000000000000000e+00 0.0000000000000000e+00  1.0601951798074647e+00 0.0000000000000000e+00 0.0000000000000000e+00  1.0532634192214558e+00 0.0000000000000000e+00 0.0000000000000000e+00  1.0475683213515945e+00 0.0000000000000000e+00 0.0000000000000000e+00  1.0449788398838518e+00 0.0000000000000000e+00 0.0000000000000000e+00  1.0451972910785499e+00 0.0000000000000000e+00 0.0000000000000000e+00  1.0464762851689275e+00 0.0000000000000000e+00 0.0000000000000000e+00  1.0503548078293290e+00 0.0000000000000000e+00 0.0000000000000000e+00  1.0549412372172409e+00 0.0000000000000000e+00 0.0000000000000000e+00  1.0590989997228446e+00 0.0000000000000000e+00 0.0000000000000000e+00  1.0623656938890422e+00 0.0000000000000000e+00 0.0000000000000000e+00  1.0630017336973963e+00 0.0000000000000000e+00 0.0000000000000000e+00  1.0613630956646829e+00 0.0000000000000000e+00 0.0000000000000000e+00  1.0580371123506942e+00 0.0000000000000000e+00 0.0000000000000000e+00  1.0527206098430879e+00 0.0000000000000000e+00 0.0000000000000000e+00  1.0471633134773111e+00 0.0000000000000000e+00 0.0000000000000000e+00  1.0439992219589316e+00 0.0000000000000000e+00 0.0000000000000000e+00  1.0415576331765499e+00 0.0000000000000000e+00 0.0000000000000000e+00  1.0411581565011070e+00 0.0000000000000000e+00 0.0000000000000000e+00  1.0440990474825493e+00 0.0000000000000000e+00 0.0000000000000000e+00  1.0478923350311355e+00 0.0000000000000000e+00 0.0000000000000000e+00  1.0524497039249796e+00 0.0000000000000000e+00 0.0000000000000000e+00  1.0584036154422194e+00 0.0000000000000000e+00 0.0000000000000000e+00  1.0621880353367079e+00 0.0000000000000000e+00 0.0000000000000000e+00  1.0637847550705071e+00 0.0000000000000000e+00 0.0000000000000000e+00  1.0638492800477111e+00 0.0000000000000000e+00 0.0000000000000000e+00  1.0611811518159870e+00 0.0000000000000000e+00 0.0000000000000000e+00  1.0572106247320612e+00 0.0000000000000000e+00 0.0000000000000000e+00  1.0535993629011664e+00 0.0000000000000000e+00 0.0000000000000000e+00  1.0498326107209652e+00 0.0000000000000000e+00 0.0000000000000000e+00  1.0473775878042504e+00 0.0000000000000000e+00 0.0000000000000000e+00  1.0493606140934575e+00 0.0000000000000000e+00 0.0000000000000000e+00  1.0511989168508646e+00 0.0000000000000000e+00 0.0000000000000000e+00  1.0528972162087402e+00 0.0000000000000000e+00 0.0000000000000000e+00  1.0563925895547421e+00 0.0000000000000000e+00 0.0000000000000000e+00  1.0611331543651081e+00 0.0000000000000000e+00 0.0000000000000000e+00  1.0639129940717804e+00 0.0000000000000000e+00 0.0000000000000000e+00  1.0642664448207599e+00 0.0000000000000000e+00 0.0000000000000000e+00  1.0608344003071066e+00 0.0000000000000000e+00 0.0000000000000000e+00  1.0564348207243974e+00 0.0000000000000000e+00 0.0000000000000000e+00  1.0531506172998528e+00 0.0000000000000000e+00 0.0000000000000000e+00  1.0509759117143000e+00 0.0000000000000000e+00 0.0000000000000000e+00  1.0501783939063001e+00 0.0000000000000000e+00 0.0000000000000000e+00  1.0515104777131474e+00 0.0000000000000000e+00 0.0000000000000000e+00  1.0547689087416463e+00 0.0000000000000000e+00 0.0000000000000000e+00  1.0591011012044895e+00 0.0000000000000000e+00 0.0000000000000000e+00  1.0629389195639440e+00 0.0000000000000000e+00 0.0000000000000000e+00  1.0664931297793696e+00 0.0000000000000000e+00 0.0000000000000000e+00  1.0681487299631605e+00 0.0000000000000000e+00 0.0000000000000000e+00  1.0677984160642791e+00 0.0000000000000000e+00 0.0000000000000000e+00  1.0663737666075097e+00 0.0000000000000000e+00 0.0000000000000000e+00  1.0638860230533715e+00 0.0000000000000000e+00 0.0000000000000000e+00  1.0618036158803419e+00 0.0000000000000000e+00 0.0000000000000000e+00  1.0598705518674525e+00 0.0000000000000000e+00 0.0000000000000000e+00  1.0602355354236377e+00 0.0000000000000000e+00 0.0000000000000000e+00  1.0626397501160052e+00 0.0000000000000000e+00 0.0000000000000000e+00  1.0678797044819612e+00 0.0000000000000000e+00 0.0000000000000000e+00  1.0742488464166995e+00 0.0000000000000000e+00 0.0000000000000000e+00  1.0820259405589410e+00 0.0000000000000000e+00 0.0000000000000000e+00  1.0883613699425880e+00 0.0000000000000000e+00 0.0000000000000000e+00  1.0959032541307603e+00 -4.3489073442734612e-03 0.0000000000000000e+00  1.1012377607693100e+00 -9.3553699243808189e-03 0.0000000000000000e+00  1.1118106314856950e+00 -1.5756047989013644e-02 0.0000000000000000e+00  1.1299141420512024e+00 -2.4767219269341560e-02 0.0000000000000000e+00  1.1600168916756930e+00 -3.7028335954966324e-02 0.0000000000000000e+00  1.1876874616747661e+00 -5.2521470342345923e-02 0.0000000000000000e+00  1.1861410808198714e+00 -6.3609987857115205e-02 0.0000000000000000e+00  1.1268519671776194e+00 -6.6070965619419289e-02 0.0000000000000000e+00  1.0059022344697088e+00 -5.0255972276372775e-02 0.0000000000000000e+00  8.6122157045961845e-01 -1.8141851248464180e-02 0.0000000000000000e+00  7.5003869285523184e-01 1.2689730224923495e-02 0.0000000000000000e+00  7.0538748151451847e-01 3.0611406263526098e-02 0.0000000000000000e+00  7.2304951047564014e-01 3.1721500508917359e-02 0.0000000000000000e+00  7.7784044781432560e-01 2.7452688321696613e-02 0.0000000000000000e+00  8.4389153338454903e-01 1.0260442343414732e-02 0.0000000000000000e+00  9.0539200316788004e-01 -2.1700258245306802e-03 0.0000000000000000e+00  9.5924009962346224e-01 -4.0120112010216249e-03 0.0000000000000000e+00  1.0027853859148306e+00 -1.2749272364227309e-03 0.0000000000000000e+00  1.0331102540388009e+00 3.2272445475976103e-03 0.0000000000000000e+00  1.0531013036529577e+00 4.5711446060890748e-03 0.0000000000000000e+00  1.0640196722985411e+00 4.6301903219132150e-03 0.0000000000000000e+00  1.0702304314356355e+00 3.5737647114121988e-03 0.0000000000000000e+00  1.0725244428758667e+00 1.8707503274139354e-03 0.0000000000000000e+00  1.0715936234790260e+00 0.0000000000000000e+00 0.0000000000000000e+00  1.0721515674893234e+00 0.0000000000000000e+00 0.0000000000000000e+00  1.0735416796016091e+00 0.0000000000000000e+00 0.0000000000000000e+00  1.0752098933964800e+00 0.0000000000000000e+00 0.0000000000000000e+00  1.0753475802741721e+00 0.0000000000000000e+00 0.0000000000000000e+00  1.0744029105912161e+00 0.0000000000000000e+00 0.0000000000000000e+00  1.0719760425620475e+00 0.0000000000000000e+00 0.0000000000000000e+00  1.0681249372750745e+00 0.0000000000000000e+00 0.0000000000000000e+00  1.0629163999544744e+00 0.0000000000000000e+00 0.0000000000000000e+00  1.0582099532904219e+00 0.0000000000000000e+00 0.0000000000000000e+00  1.0547481233156832e+00 0.0000000000000000e+00 0.0000000000000000e+00  1.0529447051584029e+00 0.0000000000000000e+00 0.0000000000000000e+00  1.0534260324696501e+00 0.0000000000000000e+00 0.0000000000000000e+00  1.0562965862216938e+00 0.0000000000000000e+00 0.0000000000000000e+00  1.0595328629510998e+00 0.0000000000000000e+00 0.0000000000000000e+00  1.0635978513724020e+00 0.0000000000000000e+00 0.0000000000000000e+00  1.0654447786191275e+00 0.0000000000000000e+00 0.0000000000000000e+00  1.0661136534721536e+00 0.0000000000000000e+00 0.0000000000000000e+00  1.0645651906592177e+00 0.0000000000000000e+00 0.0000000000000000e+00  1.0618897166062340e+00 0.0000000000000000e+00 0.0000000000000000e+00  1.0580646113235244e+00 0.0000000000000000e+00 0.0000000000000000e+00  1.0535908939587288e+00 0.0000000000000000e+00 0.0000000000000000e+00  1.0507209220796712e+00 0.0000000000000000e+00 0.0000000000000000e+00  1.0489312333045495e+00 0.0000000000000000e+00 0.0000000000000000e+00  1.0513131099785211e+00 0.0000000000000000e+00 0.0000000000000000e+00  1.0538629472372736e+00 0.0000000000000000e+00 0.0000000000000000e+00  1.0584187760094921e+00 0.0000000000000000e+00 0.0000000000000000e+00  1.0632979550489188e+00 0.0000000000000000e+00 0.0000000000000000e+00  1.0653387516726378e+00 0.0000000000000000e+00 0.0000000000000000e+00  1.0634673576135256e+00 0.0000000000000000e+00 0.0000000000000000e+00  1.0617758032541742e+00 0.0000000000000000e+00 0.0000000000000000e+00  1.0582550994318058e+00 0.0000000000000000e+00 0.0000000000000000e+00  1.0531665648855244e+00 0.0000000000000000e+00 0.0000000000000000e+00  1.0490634858313017e+00 0.0000000000000000e+00 0.0000000000000000e+00  1.0461832788193079e+00 0.0000000000000000e+00 0.0000000000000000e+00  1.0444785075605356e+00 0.0000000000000000e+00 0.0000000000000000e+00  1.0456610619304272e+00 0.0000000000000000e+00 0.0000000000000000e+00  1.0486847153211902e+00 0.0000000000000000e+00 0.0000000000000000e+00  1.0519945989790631e+00 0.0000000000000000e+00 0.0000000000000000e+00  1.0568170883316841e+00 0.0000000000000000e+00 0.0000000000000000e+00  1.0606547450488277e+00 0.0000000000000000e+00 0.0000000000000000e+00  1.0618687648061569e+00 0.0000000000000000e+00 0.0000000000000000e+00  1.0615613626101212e+00 0.0000000000000000e+00 0.0000000000000000e+00  1.0587231537127662e+00 0.0000000000000000e+00 0.0000000000000000e+00  1.0529875974277982e+00 0.0000000000000000e+00 0.0000000000000000e+00  1.0479958088555361e+00 0.0000000000000000e+00 0.0000000000000000e+00  1.0432553040372285e+00 0.0000000000000000e+00 0.0000000000000000e+00  1.0391591120963459e+00 0.0000000000000000e+00 0.0000000000000000e+00  1.0377816306913688e+00 0.0000000000000000e+00 0.0000000000000000e+00  1.0389033972407491e+00 0.0000000000000000e+00 0.0000000000000000e+00  1.0420386722786696e+00 0.0000000000000000e+00 0.0000000000000000e+00  1.0472767366888998e+00 0.0000000000000000e+00 0.0000000000000000e+00  1.0534242298648662e+00 0.0000000000000000e+00 0.0000000000000000e+00  1.0590881368892926e+00 0.0000000000000000e+00 0.0000000000000000e+00  1.0644365721248086e+00 0.0000000000000000e+00 0.0000000000000000e+00  1.0668976280918274e+00 0.0000000000000000e+00 0.0000000000000000e+00  1.0677871454038170e+00 0.0000000000000000e+00 0.0000000000000000e+00  1.0679495741718925e+00 0.0000000000000000e+00 0.0000000000000000e+00  1.0670339606227606e+00 0.0000000000000000e+00 0.0000000000000000e+00  1.0656830169607689e+00 0.0000000000000000e+00 0.0000000000000000e+00  1.0648545851335767e+00 0.0000000000000000e+00 0.0000000000000000e+00  1.0659145331127855e+00 0.0000000000000000e+00 0.0000000000000000e+00  1.0694389353437521e+00 0.0000000000000000e+00 0.0000000000000000e+00  1.0736693431746207e+00 0.0000000000000000e+00 0.0000000000000000e+00  1.0785434077835518e+00 0.0000000000000000e+00 0.0000000000000000e+00  1.0849432920879458e+00 0.0000000000000000e+00 0.0000000000000000e+00  1.0888495955719228e+00 0.0000000000000000e+00 0.0000000000000000e+00  1.0921045832777236e+00 0.0000000000000000e+00 0.0000000000000000e+00  1.0929248931139706e+00 0.0000000000000000e+00 0.0000000000000000e+00  1.0908949164331592e+00 0.0000000000000000e+00 0.0000000000000000e+00  1.0867761301044960e+00 0.0000000000000000e+00 0.0000000000000000e+00  1.0810945371087697e+00 0.0000000000000000e+00 0.0000000000000000e+00  1.0740514825857919e+00 0.0000000000000000e+00 0.0000000000000000e+00  1.0653702021947409e+00 0.0000000000000000e+00 0.0000000000000000e+00  1.0573908373474064e+00 0.0000000000000000e+00 0.0000000000000000e+00  1.0488035893425718e+00 0.0000000000000000e+00 0.0000000000000000e+00  1.0328603338272710e+00 0.0000000000000000e+00 0.0000000000000000e+00  1.0261719229245996e+00 0.0000000000000000e+00 0.0000000000000000e+00  1.0209177564683891e+00 0.0000000000000000e+00 0.0000000000000000e+00  1.0162505978098839e+00 0.0000000000000000e+00 0.0000000000000000e+00  1.0124293111558169e+00 0.0000000000000000e+00 0.0000000000000000e+00  1.0094203609783567e+00 0.0000000000000000e+00 0.0000000000000000e+00  1.0071188374143576e+00 0.0000000000000000e+00 0.0000000000000000e+00  1.0048679476927931e+00 0.0000000000000000e+00 0.0000000000000000e+00  1.0033052010478072e+00 0.0000000000000000e+00 0.0000000000000000e+00  1.0021936682397308e+00 0.0000000000000000e+00 0.0000000000000000e+00  1.0009679455828953e+00 0.0000000000000000e+00 0.0000000000000000e+00  1.0008036440122321e+00 0.0000000000000000e+00 0.0000000000000000e+00  9.9977995288789845e-01 0.0000000000000000e+00 0.0000000000000000e+00  9.9982326291032653e-01 0.0000000000000000e+00 0.0000000000000000e+00  9.9953241221417055e-01 0.0000000000000000e+00 0.0000000000000000e+00  1.0003118935103599e+00 0.0000000000000000e+00 0.0000000000000000e+00  1.0001674061239048e+00 0.0000000000000000e+00 0.0000000000000000e+00  9.9978543472135917e-01 0.0000000000000000e+00 0.0000000000000000e+00  1.0000001313984577e+00 0.0000000000000000e+00 0.0000000000000000e+00  1.0000001313984577e+00 0.0000000000000000e+00 0.0000000000000000e+00  1.0000001313984577e+00 0.0000000000000000e+00 0.0000000000000000e+00  1.0000001313984577e+00 0.0000000000000000e+00 0.0000000000000000e+00  1.0000001313984577e+00 0.0000000000000000e+00 0.0000000000000000e+00  1.0000001313984577e+00 0.0000000000000000e+00 0.0000000000000000e+00  1.0000001313984577e+00 0.0000000000000000e+00 0.0000000000000000e+00  1.0000001313984577e+00 0.0000000000000000e+00 0.0000000000000000e+00  1.0000001313984577e+00 0.0000000000000000e+00 0.0000000000000000e+00  1.0000001313984577e+00 0.0000000000000000e+00 0.0000000000000000e+00  1.0000001313984577e+00 0.0000000000000000e+00 0.0000000000000000e+00  1.0000001313984577e+00 0.0000000000000000e+00 0.0000000000000000e+00  1.0000001313984577e+00 0.0000000000000000e+00 0.0000000000000000e+00  1.0000001313984577e+00 0.0000000000000000e+00 0.0000000000000000e+00  1.0000001313984577e+00 0.0000000000000000e+00 0.0000000000000000e+00  1.0000001313984577e+00 0.0000000000000000e+00 0.0000000000000000e+00  1.0000001313984577e+00 0.0000000000000000e+00 0.0000000000000000e+00  1.0000001313984577e+00 0.0000000000000000e+00 0.0000000000000000e+00  1.0000001313984577e+00 0.0000000000000000e+00 0.0000000000000000e+00  1.0000001313984577e+00 0.0000000000000000e+00 0.0000000000000000e+00  1.0396611215929088e+00 -8.8607326205933853e-03 0.0000000000000000e+00  1.0369532419328449e+00 -1.7961288136919974e-02 0.0000000000000000e+00  1.0352171343645125e+00 -2.8028826740409948e-02 0.0000000000000000e+00  1.0302830307663073e+00 -3.8566715192172418e-02 0.0000000000000000e+00  1.0255828036372125e+00 -5.2917276476575070e-02 0.0000000000000000e+00  1.0301266542797722e+00 -5.5803829739830987e-02 0.0000000000000000e+00  1.0341852854077715e+00 -5.8714937979420005e-02 0.0000000000000000e+00  1.0392558948941648e+00 -6.1229291005556075e-02 0.0000000000000000e+00  1.0445039152088289e+00 -6.3532842764138203e-02 0.0000000000000000e+00  1.0503112234974559e+00 -6.5317083573896997e-02 0.0000000000000000e+00  1.0566079500969237e+00 -6.6685969039695758e-02 0.0000000000000000e+00  1.0631922491158545e+00 -6.7311622191589870e-02 0.0000000000000000e+00  1.0701745407062553e+00 -6.7305097724270790e-02 0.0000000000000000e+00  1.0770452683940497e+00 -6.6342392573383938e-02 0.0000000000000000e+00  1.0840462051097086e+00 -6.4717456043484389e-02 0.0000000000000000e+00  1.0907751730834756e+00 -6.2352724844760614e-02 0.0000000000000000e+00  1.0973469449471294e+00 -5.8903657677633142e-02 0.0000000000000000e+00  1.1032051445800646e+00 -5.4572231580384073e-02 0.0000000000000000e+00  1.1083906369437975e+00 -4.9743376353708180e-02 0.0000000000000000e+00  1.1127635528311044e+00 -4.4318039532012063e-02 0.0000000000000000e+00  1.1161258615846499e+00 -3.8502472552023430e-02 0.0000000000000000e+00  1.1184131751430360e+00 -3.2466063524093133e-02 0.0000000000000000e+00  1.1197358232994183e+00 -2.6561393534199569e-02 0.0000000000000000e+00  1.1200030881352898e+00 -2.0670039072544555e-02 0.0000000000000000e+00  1.1193414666785990e+00 -1.5540586164185988e-02 0.0000000000000000e+00  1.1178363319733173e+00 -1.0651956086522453e-02 0.0000000000000000e+00  1.1155953943371897e+00 -6.5704928267742496e-03 0.0000000000000000e+00  1.1130134504631795e+00 -3.5425985952926191e-03 0.0000000000000000e+00  1.1101186092075181e+00 -1.5115306199804976e-03 0.0000000000000000e+00  1.1072037633620642e+00 -4.7438760582512428e-04 0.0000000000000000e+00  1.1045203286703309e+00 -2.8278130990223762e-04 0.0000000000000000e+00  1.1023769474310652e+00 -1.0447861644873936e-03 0.0000000000000000e+00  1.1007937375499908e+00 -2.4709655013895682e-03 0.0000000000000000e+00  1.1001761150931946e+00 -4.3348171488094027e-03 0.0000000000000000e+00  1.1005742196247112e+00 -6.5127890186697695e-03 0.0000000000000000e+00  1.1019822537931037e+00 -8.5616503