<?xml version="1.0"?>
<VTKFile type="UnstructuredGrid"  version="0.1"  >
<UnstructuredGrid>
<Piece  NumberOfPoints="10199" NumberOfCells="20110">
<Points>
<DataArray  type="Float64"  NumberOfComponents="3"  format="ascii">0 -5 0  8 -5 0  30 -5 0  40 -5 0  40 5 0  30 5 0  8 5 0  0 5 0  8 -2.5 0  15 -2.5 0  30 -2.5 0  30 2.5 0  15 2.5 0  8 2.5 0  10 0.5 0  10 -0.5 0  0 0 0  0.4210526315780956 -5 0  0.8421052631563433 -5 0  1.263157894734281 -5 0  1.684210526311999 -5 0  2.105263157889717 -5 0  2.526315789467435 -5 0  2.947368421045153 -5 0  3.368421052622872 -5 0  3.78947368420059 -5 0  4.210526315779479 -5 0  4.631578947359537 -5 0  5.052631578939595 -5 0  5.473684210519653 -5 0  5.89473684209971 -5 0  6.315789473679768 -5 0  6.736842105259826 -5 0  7.157894736839884 -5 0  7.578947368419942 -5 0  8.407407407405314 -5 0  8.814814814810628 -5 0  9.222222222215942 -5 0  9.629629629621256 -5 0  10.03703703702657 -5 0  10.44444444443188 -5 0  10.8518518518372 -5 0  11.25925925924251 -5 0  11.66666666664783 -5 0  12.07407407405314 -5 0  12.48148148145846 -5 0  12.88888888886377 -5 0  13.29629629626908 -5 0  13.7037037036744 -5 0  14.11111111107971 -5 0  14.51851851848502 -5 0  14.92592592589034 -5 0  15.33333333329565 -5 0  15.74074074070096 -5 0  16.14814814810754 -5 0  16.55555555551614 -5 0  16.96296296292474 -5 0  17.37037037033335 -5 0  17.77777777774195 -5 0  18.18518518515056 -5 0  18.59259259255916 -5 0  18.99999999996776 -5 0  19.40740740737636 -5 0  19.81481481478497 -5 0  20.22222222219357 -5 0  20.62962962960217 -5 0  21.03703703701077 -5 0  21.44444444441937 -5 0  21.85185185182797 -5 0  22.25925925923657 -5 0  22.66666666664518 -5 0  23.07407407405378 -5 0  23.48148148146238 -5 0  23.88888888887098 -5 0  24.29629629627958 -5 0  24.70370370368818 -5 0  25.11111111109678 -5 0  25.51851851850539 -5 0  25.92592592591399 -5 0  26.33333333332259 -5 0  26.74074074073119 -5 0  27.14814814813979 -5 0  27.55555555554839 -5 0  27.96296296295699 -5 0  28.3703703703656 -5 0  28.7777777777742 -5 0  29.1851851851828 -5 0  29.5925925925914 -5 0  30.41666666667852 -5 0  30.83333333335704 -5 0  31.25000000003556 -5 0  31.66666666671408 -5 0  32.08333333338936 -5 0  32.50000000005308 -5 0  32.9166666667168 -5 0  33.33333333338052 -5 0  33.75000000004424 -5 0  34.16666666670795 -5 0  34.58333333337167 -5 0  35.00000000003539 -5 0  35.41666666669911 -5 0  35.83333333336282 -5 0  36.25000000002654 -5 0  36.66666666669026 -5 0  37.08333333335398 -5 0  37.50000000001769 -5 0  37.91666666668141 -5 0  38.33333333334513 -5 0  38.75000000000885 -5 0  39.16666666667257 -5 0  39.58333333333628 -5 0  40 -4.583333333332821 0  40 -4.166666666665642 0  40 -3.74999999999855 0  40 -3.333333333333135 0  40 -2.916666666667806 0  40 -2.500000000002478 0  40 -2.083333333337148 0  40 -1.666666666671818 0  40 -1.250000000006488 0  40 -0.8333333333405228 0  40 -0.4166666666733416 0  40 -6.163070054299169e-12 0  40 0.4166666666610173 0  40 0.8333333333281976 0  40 1.249999999995378 0  40 1.666666666662558 0  40 2.083333333329739 0  40 2.499999999996919 0  40 2.916666666664099 0  40 3.33333333333128 0  40 3.74999999999846 0  40 4.166666666665641 0  40 4.583333333332821 0  39.58333333333628 5 0  39.16666666667256 5 0  38.75000000000885 5 0  38.33333333334513 5 0  37.91666666668141 5 0  37.50000000001769 5 0  37.08333333335398 5 0  36.66666666669025 5 0  36.25000000002654 5 0  35.83333333336282 5 0  35.41666666669911 5 0  35.00000000003539 5 0  34.58333333337167 5 0  34.16666666670795 5 0  33.75000000004424 5 0  33.33333333338052 5 0  32.9166666667168 5 0  32.50000000005308 5 0  32.08333333338936 5 0  31.66666666671408 5 0  31.25000000003556 5 0  30.83333333335704 5 0  30.41666666667852 5 0  29.59259259259259 5 0  29.18518518518519 5 0  28.77777777777778 5 0  28.37037037037037 5 0  27.96296296296296 5 0  27.55555555555556 5 0  27.14814814814815 5 0  26.74074074074074 5 0  26.33333333333333 5 0  25.92592592592593 5 0  25.51851851851852 5 0  25.11111111111111 5 0  24.7037037037037 5 0  24.2962962962963 5 0  23.88888888888889 5 0  23.48148148148148 5 0  23.07407407407408 5 0  22.66666666666667 5 0  22.25925925925926 5 0  21.85185185185185 5 0  21.44444444444445 5 0  21.03703703703704 5 0  20.62962962962963 5 0  20.22222222222222 5 0  19.81481481481482 5 0  19.40740740740741 5 0  19 5 0  18.5925925925926 5 0  18.18518518518519 5 0  17.77777777777778 5 0  17.37037037037037 5 0  16.96296296296296 5 0  16.55555555555556 5 0  16.14814814814815 5 0  15.74074074074074 5 0  15.33333333333333 5 0  14.92592592592593 5 0  14.51851851851852 5 0  14.11111111111111 5 0  13.70370370370371 5 0  13.2962962962963 5 0  12.88888888888889 5 0  12.48148148148148 5 0  12.07407407407408 5 0  11.66666666666667 5 0  11.25925925925926 5 0  10.85185185185185 5 0  10.44444444444445 5 0  10.03703703703704 5 0  9.629629629629633 5 0  9.222222222222221 5 0  8.814814814814817 5 0  8.407407407407408 5 0  7.5789473684193 5 0  7.157894736838599 5 0  6.73684210526082 5 0  6.315789473684795 5 0  5.894736842108769 5 0  5.473684210532742 5 0  5.052631578956715 5 0  4.631578947380689 5 0  4.210526315804662 5 0  3.789473684226299 5 0  3.368421052645599 5 0  2.947368421064898 5 0  2.526315789484198 5 0  2.105263157903499 5 0  1.6842105263228 5 0  1.2631578947421 5 0  0.8421052631613994 5 0  0.4210526315806993 5 0  0 4.545454545454545 0  0 4.09090909090909 0  0 3.636363636363634 0  0 3.18181818181818 0  0 2.727272727272726 0  0 2.272727272727271 0  0 1.818181818181817 0  0 1.363636363636363 0  0 0.9090909090909092 0  0 0.454545454545455 0  0 -0.4545454545450807 0  0 -0.9090909090895867 0  0 -1.363636363633713 0  0 -1.818181818177841 0  0 -2.272727272723127 0  0 -2.727272727269273 0  0 -3.181818181815419 0  0 -3.636363636361564 0  0 -4.090909090907709 0  0 -4.545454545453855 0  8 -4.499999999999999 0  8 -3.999999999999999 0  8 -3.499999999999999 0  8 -3 0  8.137254901963859 -2.5 0  8.274509803926303 -2.5 0  8.411764705886863 -2.5 0  8.549019607849138 -2.5 0  8.686274509809513 -2.5 0  8.82352941176989 -2.5 0  8.960784313730265 -2.5 0  9.098039215690642 -2.5 0  9.235294117651017 -2.5 0  9.372549019611395 -2.5 0  9.50980392157177 -2.5 0  9.647058823532147 -2.5 0  9.784313725492522 -2.5 0  9.921568627452897 -2.5 0  10.05882352941327 -2.5 0  10.19607843137365 -2.5 0  10.33333333333402 -2.5 0  10.4705882352944 -2.5 0  10.60784313725478 -2.5 0  10.74509803921515 -2.5 0  10.88235294117553 -2.5 0  11.0196078431359 -2.5 0  11.15686274509628 -2.5 0  11.29411764705665 -2.5 0  11.43137254901703 -2.5 0  11.56862745097915 -2.5 0  11.70588235294301 -2.5 0  11.84313725490686 -2.5 0  11.98039215687072 -2.5 0  12.11764705883209 -2.5 0  12.25490196079247 -2.5 0  12.39215686275285 -2.5 0  12.52941176471322 -2.5 0  12.6666666666736 -2.5 0  12.80392156863397 -2.5 0  12.94117647059435 -2.5 0  13.07843137255473 -2.5 0  13.2156862745151 -2.5 0  13.35294117647548 -2.5 0  13.49019607843586 -2.5 0  13.62745098039623 -2.5 0  13.76470588235661 -2.5 0  13.90196078431699 -2.5 0  14.03921568627736 -2.5 0  14.17647058823774 -2.5 0  14.31372549019812 -2.5 0  14.45098039215849 -2.5 0  14.58823529411887 -2.5 0  14.72549019607925 -2.5 0  14.86274509803962 -2.5 0  15.20270270270254 -2.5 0  15.40540540540509 -2.5 0  15.60810810810763 -2.5 0  15.81081081081017 -2.5 0  16.01351351351227 -2.5 0  16.21621621621265 -2.5 0  16.41891891891279 -2.5 0  16.62162162161294 -2.5 0  16.82432432431308 -2.5 0  17.02702702701322 -2.5 0  17.22972972971337 -2.5 0  17.43243243241351 -2.5 0  17.63513513511365 -2.5 0  17.83783783781379 -2.5 0  18.04054054051394 -2.5 0  18.24324324321408 -2.5 0  18.44594594591422 -2.5 0  18.64864864861436 -2.5 0  18.85135135131451 -2.5 0  19.05405405401465 -2.5 0  19.25675675671479 -2.5 0  19.45945945941494 -2.5 0  19.66216216211508 -2.5 0  19.86486486481522 -2.5 0  20.06756756751536 -2.5 0  20.27027027021551 -2.5 0  20.47297297291565 -2.5 0  20.6756756756158 -2.5 0  20.87837837831594 -2.5 0  21.08108108101608 -2.5 0  21.28378378371622 -2.5 0  21.48648648641637 -2.5 0  21.68918918911651 -2.5 0  21.89189189181666 -2.5 0  22.0945945945168 -2.5 0  22.29729729721694 -2.5 0  22.49999999991778 -2.5 0  22.70270270262203 -2.5 0  22.90540540532697 -2.5 0  23.10810810803191 -2.5 0  23.31081081073686 -2.5 0  23.5135135134418 -2.5 0  23.71621621614674 -2.5 0  23.91891891885169 -2.5 0  24.12162162155663 -2.5 0  24.32432432426158 -2.5 0  24.52702702696652 -2.5 0  24.72972972967146 -2.5 0  24.93243243237641 -2.5 0  25.13513513508135 -2.5 0  25.3378378377863 -2.5 0  25.54054054049124 -2.5 0  25.74324324319618 -2.5 0  25.94594594590112 -2.5 0  26.14864864860607 -2.5 0  26.35135135131101 -2.5 0  26.55405405401596 -2.5 0  26.7567567567209 -2.5 0  26.95945945942584 -2.5 0  27.16216216213079 -2.5 0  27.36486486483573 -2.5 0  27.56756756754068 -2.5 0  27.77027027024562 -2.5 0  27.97297297295056 -2.5 0  28.1756756756555 -2.5 0  28.37837837836045 -2.5 0  28.5810810810654 -2.5 0  28.78378378377034 -2.5 0  28.98648648647528 -2.5 0  29.18918918918023 -2.5 0  29.39189189188517 -2.5 0  29.59459459459011 -2.5 0  29.79729729729506 -2.5 0  30 -3.000000000000001 0  30 -3.500000000000001 0  30 -4.000000000000001 0  30 -4.5 0  8 4.499999999999999 0  8 3.999999999999999 0  8 3.499999999999999 0  8 3 0  8.137254901963859 2.5 0  8.274509803926303 2.5 0  8.411764705886863 2.5 0  8.549019607849138 2.5 0  8.686274509809513 2.5 0  8.82352941176989 2.5 0  8.960784313730265 2.5 0  9.098039215690642 2.5 0  9.235294117651017 2.5 0  9.372549019611395 2.5 0  9.50980392157177 2.5 0  9.647058823532147 2.5 0  9.784313725492522 2.5 0  9.921568627452897 2.5 0  10.05882352941327 2.5 0  10.19607843137365 2.5 0  10.33333333333402 2.5 0  10.4705882352944 2.5 0  10.60784313725478 2.5 0  10.74509803921515 2.5 0  10.88235294117553 2.5 0  11.0196078431359 2.5 0  11.15686274509628 2.5 0  11.29411764705665 2.5 0  11.43137254901703 2.5 0  11.56862745097915 2.5 0  11.70588235294301 2.5 0  11.84313725490686 2.5 0  11.98039215687072 2.5 0  12.11764705883209 2.5 0  12.25490196079247 2.5 0  1
[...]
<PointData  Vectors="f_17"> 
<DataArray  type="Float64"  Name="f_17"  NumberOfComponents="3" format="ascii">1.0000001304470401e+00 0.0000000000000000e+00 0.0000000000000000e+00  1.0442999532562331e+00 0.0000000000000000e+00 0.0000000000000000e+00  1.0794090359195343e+00 0.0000000000000000e+00 0.0000000000000000e+00  1.1562261068617627e+00 0.0000000000000000e+00 0.0000000000000000e+00  1.0905459081257793e+00 0.0000000000000000e+00 0.0000000000000000e+00  1.1187614743009557e+00 0.0000000000000000e+00 0.0000000000000000e+00  1.0409320802197199e+00 0.0000000000000000e+00 0.0000000000000000e+00  1.0000001304470401e+00 0.0000000000000000e+00 0.0000000000000000e+00  1.0233530984045498e+00 -5.4484013759886991e-02 0.0000000000000000e+00  1.1145172145407085e+00 -4.7459864185504408e-02 0.0000000000000000e+00  9.8913617677595234e-01 1.0020849927863965e-02 0.0000000000000000e+00  1.2446238815986577e+00 4.0751910781675442e-02 0.0000000000000000e+00  1.0411372323596497e+00 -8.3026262931095329e-02 0.0000000000000000e+00  1.0198043748025283e+00 5.1981124134733575e-02 0.0000000000000000e+00  0.0000000000000000e+00 0.0000000000000000e+00 0.0000000000000000e+00  0.0000000000000000e+00 0.0000000000000000e+00 0.0000000000000000e+00  1.0000001304470401e+00 0.0000000000000000e+00 0.0000000000000000e+00  9.9930098634873810e-01 0.0000000000000000e+00 0.0000000000000000e+00  9.9874478131731259e-01 0.0000000000000000e+00 0.0000000000000000e+00  1.0008016988314241e+00 0.0000000000000000e+00 0.0000000000000000e+00  1.0006451293315464e+00 0.0000000000000000e+00 0.0000000000000000e+00  1.0016589848746016e+00 0.0000000000000000e+00 0.0000000000000000e+00  1.0020404332871065e+00 0.0000000000000000e+00 0.0000000000000000e+00  1.0024303630953013e+00 0.0000000000000000e+00 0.0000000000000000e+00  1.0033665695042246e+00 0.0000000000000000e+00 0.0000000000000000e+00  1.0046994396942741e+00 0.0000000000000000e+00 0.0000000000000000e+00  1.0059548710831756e+00 0.0000000000000000e+00 0.0000000000000000e+00  1.0075388675392425e+00 0.0000000000000000e+00 0.0000000000000000e+00  1.0098967414977571e+00 0.0000000000000000e+00 0.0000000000000000e+00  1.0123675788924624e+00 0.0000000000000000e+00 0.0000000000000000e+00  1.0164190387055316e+00 0.0000000000000000e+00 0.0000000000000000e+00  1.0183338218343132e+00 0.0000000000000000e+00 0.0000000000000000e+00  1.0231032505587287e+00 0.0000000000000000e+00 0.0000000000000000e+00  1.0301140905454340e+00 0.0000000000000000e+00 0.0000000000000000e+00  1.0358849721447376e+00 0.0000000000000000e+00 0.0000000000000000e+00  1.0528150920563597e+00 0.0000000000000000e+00 0.0000000000000000e+00  1.0618104003715749e+00 0.0000000000000000e+00 0.0000000000000000e+00  1.0702364629817733e+00 0.0000000000000000e+00 0.0000000000000000e+00  1.0790381030214558e+00 0.0000000000000000e+00 0.0000000000000000e+00  1.0860900654983567e+00 0.0000000000000000e+00 0.0000000000000000e+00  1.0920569594846641e+00 0.0000000000000000e+00 0.0000000000000000e+00  1.0970886578626406e+00 0.0000000000000000e+00 0.0000000000000000e+00  1.0990120345132326e+00 0.0000000000000000e+00 0.0000000000000000e+00  1.0995951029314965e+00 0.0000000000000000e+00 0.0000000000000000e+00  1.0983895259301792e+00 0.0000000000000000e+00 0.0000000000000000e+00  1.0964691936132702e+00 0.0000000000000000e+00 0.0000000000000000e+00  1.0931490406913891e+00 0.0000000000000000e+00 0.0000000000000000e+00  1.0910960585736649e+00 0.0000000000000000e+00 0.0000000000000000e+00  1.0895296746298127e+00 0.0000000000000000e+00 0.0000000000000000e+00  1.0885909552460642e+00 0.0000000000000000e+00 0.0000000000000000e+00  1.0885733208730526e+00 0.0000000000000000e+00 0.0000000000000000e+00  1.0884711861116072e+00 0.0000000000000000e+00 0.0000000000000000e+00  1.0877342508369765e+00 0.0000000000000000e+00 0.0000000000000000e+00  1.0852944545098526e+00 0.0000000000000000e+00 0.0000000000000000e+00  1.0807951675223850e+00 0.0000000000000000e+00 0.0000000000000000e+00  1.0756853528740904e+00 0.0000000000000000e+00 0.0000000000000000e+00  1.0697526420337062e+00 0.0000000000000000e+00 0.0000000000000000e+00  1.0621206293941774e+00 0.0000000000000000e+00 0.0000000000000000e+00  1.0560426275291332e+00 0.0000000000000000e+00 0.0000000000000000e+00  1.0513456319408228e+00 0.0000000000000000e+00 0.0000000000000000e+00  1.0491153384268030e+00 0.0000000000000000e+00 0.0000000000000000e+00  1.0501734747220250e+00 0.0000000000000000e+00 0.0000000000000000e+00  1.0538202560018102e+00 0.0000000000000000e+00 0.0000000000000000e+00  1.0598431306225722e+00 0.0000000000000000e+00 0.0000000000000000e+00  1.0676640342897274e+00 0.0000000000000000e+00 0.0000000000000000e+00  1.0745856866180405e+00 0.0000000000000000e+00 0.0000000000000000e+00  1.0797588428956657e+00 0.0000000000000000e+00 0.0000000000000000e+00  1.0837062097451702e+00 0.0000000000000000e+00 0.0000000000000000e+00  1.0831961405059387e+00 0.0000000000000000e+00 0.0000000000000000e+00  1.0793906885095810e+00 0.0000000000000000e+00 0.0000000000000000e+00  1.0741923037784311e+00 0.0000000000000000e+00 0.0000000000000000e+00  1.0673279063504049e+00 0.0000000000000000e+00 0.0000000000000000e+00  1.0608215234855130e+00 0.0000000000000000e+00 0.0000000000000000e+00  1.0576843285310156e+00 0.0000000000000000e+00 0.0000000000000000e+00  1.0563660671343700e+00 0.0000000000000000e+00 0.0000000000000000e+00  1.0583088278377137e+00 0.0000000000000000e+00 0.0000000000000000e+00  1.0643521067735016e+00 0.0000000000000000e+00 0.0000000000000000e+00  1.0723717617095236e+00 0.0000000000000000e+00 0.0000000000000000e+00  1.0819528448524240e+00 0.0000000000000000e+00 0.0000000000000000e+00  1.0924710497249954e+00 0.0000000000000000e+00 0.0000000000000000e+00  1.1006018112444707e+00 0.0000000000000000e+00 0.0000000000000000e+00  1.1053592794429641e+00 0.0000000000000000e+00 0.0000000000000000e+00  1.1088289966881910e+00 0.0000000000000000e+00 0.0000000000000000e+00  1.1063970463990724e+00 0.0000000000000000e+00 0.0000000000000000e+00  1.0991114517061478e+00 0.0000000000000000e+00 0.0000000000000000e+00  1.0915230037322601e+00 0.0000000000000000e+00 0.0000000000000000e+00  1.0858786466211869e+00 0.0000000000000000e+00 0.0000000000000000e+00  1.0808826569089842e+00 0.0000000000000000e+00 0.0000000000000000e+00  1.0810073669639613e+00 0.0000000000000000e+00 0.0000000000000000e+00  1.0852693848825314e+00 0.0000000000000000e+00 0.0000000000000000e+00  1.0925368540762406e+00 0.0000000000000000e+00 0.0000000000000000e+00  1.1024857850550218e+00 0.0000000000000000e+00 0.0000000000000000e+00  1.1130522532568166e+00 0.0000000000000000e+00 0.0000000000000000e+00  1.1219208392548965e+00 0.0000000000000000e+00 0.0000000000000000e+00  1.1280761683280216e+00 0.0000000000000000e+00 0.0000000000000000e+00  1.1305722589747123e+00 0.0000000000000000e+00 0.0000000000000000e+00  1.1285975350212099e+00 0.0000000000000000e+00 0.0000000000000000e+00  1.1218213093647356e+00 0.0000000000000000e+00 0.0000000000000000e+00  1.1125791034879517e+00 0.0000000000000000e+00 0.0000000000000000e+00  1.1022240115784268e+00 0.0000000000000000e+00 0.0000000000000000e+00  1.0927522736806246e+00 0.0000000000000000e+00 0.0000000000000000e+00  1.0866416159155443e+00 0.0000000000000000e+00 0.0000000000000000e+00  1.0843174173745360e+00 0.0000000000000000e+00 0.0000000000000000e+00  1.0869203093424835e+00 0.0000000000000000e+00 0.0000000000000000e+00  1.0930776473762636e+00 0.0000000000000000e+00 0.0000000000000000e+00  1.1035653807356618e+00 0.0000000000000000e+00 0.0000000000000000e+00  1.1164934175251005e+00 0.0000000000000000e+00 0.0000000000000000e+00  1.1313148666840083e+00 0.0000000000000000e+00 0.0000000000000000e+00  1.1443391415206243e+00 0.0000000000000000e+00 0.0000000000000000e+00  1.1545201490555737e+00 0.0000000000000000e+00 0.0000000000000000e+00  1.1581350554637302e+00 0.0000000000000000e+00 0.0000000000000000e+00  1.1599552865936775e+00 5.8239514037920301e-03 0.0000000000000000e+00  1.1703064553588711e+00 1.3042706151836659e-02 0.0000000000000000e+00  1.1841521486672868e+00 2.2760448388220618e-02 0.0000000000000000e+00  1.1915715510479514e+00 3.5262928521672877e-02 0.0000000000000000e+00  1.1858110102132580e+00 5.8563904152823025e-02 0.0000000000000000e+00  1.1455514540874197e+00 9.0807729269505255e-02 0.0000000000000000e+00  1.0584495737893007e+00 1.3807411919858831e-01 0.0000000000000000e+00  9.4214859781170002e-01 1.7155075624036589e-01 0.0000000000000000e+00  8.3494955780691482e-01 1.8356022389010235e-01 0.0000000000000000e+00  7.7367863828968153e-01 1.7306934900586549e-01 0.0000000000000000e+00  7.6637471810076929e-01 1.4210915702441965e-01 0.0000000000000000e+00  7.8445633346439159e-01 1.1662227503860560e-01 0.0000000000000000e+00  8.1192471841302827e-01 9.9861673729187722e-02 0.0000000000000000e+00  8.4285031551258349e-01 9.2409913102785485e-02 0.0000000000000000e+00  8.7702302771904006e-01 8.7427934472499774e-02 0.0000000000000000e+00  9.0895906887903233e-01 7.8283767050539813e-02 0.0000000000000000e+00  9.3938935195058038e-01 6.3711507780164517e-02 0.0000000000000000e+00  9.7879779537472311e-01 5.2547080543744192e-02 0.0000000000000000e+00  1.0219503735622417e+00 4.5701271844444842e-02 0.0000000000000000e+00  1.0537756921392594e+00 3.4753981191659747e-02 0.0000000000000000e+00  1.0725881648622910e+00 2.3582451374266931e-02 0.0000000000000000e+00  1.0840404675279760e+00 1.4186703566233359e-02 0.0000000000000000e+00  1.0893323327416362e+00 6.4638277730529612e-03 0.0000000000000000e+00  1.0862521852656783e+00 0.0000000000000000e+00 0.0000000000000000e+00  1.0867087318062534e+00 0.0000000000000000e+00 0.0000000000000000e+00  1.0916981021140801e+00 0.0000000000000000e+00 0.0000000000000000e+00  1.1010555458464413e+00 0.0000000000000000e+00 0.0000000000000000e+00  1.1122134327106776e+00 0.0000000000000000e+00 0.0000000000000000e+00  1.1241141340160778e+00 0.0000000000000000e+00 0.0000000000000000e+00  1.1340332454663693e+00 0.0000000000000000e+00 0.0000000000000000e+00  1.1399345985063032e+00 0.0000000000000000e+00 0.0000000000000000e+00  1.1397012495777656e+00 0.0000000000000000e+00 0.0000000000000000e+00  1.1353188111078609e+00 0.0000000000000000e+00 0.0000000000000000e+00  1.1266884476095993e+00 0.0000000000000000e+00 0.0000000000000000e+00  1.1160782505397013e+00 0.0000000000000000e+00 0.0000000000000000e+00  1.1049029255886176e+00 0.0000000000000000e+00 0.0000000000000000e+00  1.0957984721267144e+00 0.0000000000000000e+00 0.0000000000000000e+00  1.0881915094446328e+00 0.0000000000000000e+00 0.0000000000000000e+00  1.0851680079153192e+00 0.0000000000000000e+00 0.0000000000000000e+00  1.0846513237869717e+00 0.0000000000000000e+00 0.0000000000000000e+00  1.0883975502625145e+00 0.0000000000000000e+00 0.0000000000000000e+00  1.0949193752159474e+00 0.0000000000000000e+00 0.0000000000000000e+00  1.1038805741386459e+00 0.0000000000000000e+00 0.0000000000000000e+00  1.1120614790167680e+00 0.0000000000000000e+00 0.0000000000000000e+00  1.1181200956871600e+00 0.0000000000000000e+00 0.0000000000000000e+00  1.1207175029373038e+00 0.0000000000000000e+00 0.0000000000000000e+00  1.1123623008536674e+00 0.0000000000000000e+00 0.0000000000000000e+00  1.1035077442444214e+00 0.0000000000000000e+00 0.0000000000000000e+00  1.0925563881656173e+00 0.0000000000000000e+00 0.0000000000000000e+00  1.0832666711697212e+00 0.0000000000000000e+00 0.0000000000000000e+00  1.0764491638275728e+00 0.0000000000000000e+00 0.0000000000000000e+00  1.0712187795258952e+00 0.0000000000000000e+00 0.0000000000000000e+00  1.0673264212997462e+00 0.0000000000000000e+00 0.0000000000000000e+00  1.0690094679325093e+00 0.0000000000000000e+00 0.0000000000000000e+00  1.0735262866630080e+00 0.0000000000000000e+00 0.0000000000000000e+00  1.0790790113287663e+00 0.0000000000000000e+00 0.0000000000000000e+00  1.0856953283637591e+00 0.0000000000000000e+00 0.0000000000000000e+00  1.0911907962529321e+00 0.0000000000000000e+00 0.0000000000000000e+00  1.0934330934819003e+00 0.0000000000000000e+00 0.0000000000000000e+00  1.0928348699765704e+00 0.0000000000000000e+00 0.0000000000000000e+00  1.0883090829358255e+00 0.0000000000000000e+00 0.0000000000000000e+00  1.0799717000554678e+00 0.0000000000000000e+00 0.0000000000000000e+00  1.0712835613240372e+00 0.0000000000000000e+00 0.0000000000000000e+00  1.0625157593452830e+00 0.0000000000000000e+00 0.0000000000000000e+00  1.0542647972442887e+00 0.0000000000000000e+00 0.0000000000000000e+00  1.0496760744440847e+00 0.0000000000000000e+00 0.0000000000000000e+00  1.0480654898140211e+00 0.0000000000000000e+00 0.0000000000000000e+00  1.0485963446234150e+00 0.0000000000000000e+00 0.0000000000000000e+00  1.0532991209918772e+00 0.0000000000000000e+00 0.0000000000000000e+00  1.0597294980152610e+00 0.0000000000000000e+00 0.0000000000000000e+00  1.0660702590279241e+00 0.0000000000000000e+00 0.0000000000000000e+00  1.0721430578205697e+00 0.0000000000000000e+00 0.0000000000000000e+00  1.0766192946139568e+00 0.0000000000000000e+00 0.0000000000000000e+00  1.0781322288238000e+00 0.0000000000000000e+00 0.0000000000000000e+00  1.0774759879473665e+00 0.0000000000000000e+00 0.0000000000000000e+00  1.0745364515994826e+00 0.0000000000000000e+00 0.0000000000000000e+00  1.0702188967712021e+00 0.0000000000000000e+00 0.0000000000000000e+00  1.0665460618228078e+00 0.0000000000000000e+00 0.0000000000000000e+00  1.0629443911793042e+00 0.0000000000000000e+00 0.0000000000000000e+00  1.0617469047421091e+00 0.0000000000000000e+00 0.0000000000000000e+00  1.0637311992792866e+00 0.0000000000000000e+00 0.0000000000000000e+00  1.0680072672548551e+00 0.0000000000000000e+00 0.0000000000000000e+00  1.0736552907399479e+00 0.0000000000000000e+00 0.0000000000000000e+00  1.0801535039283798e+00 0.0000000000000000e+00 0.0000000000000000e+00  1.0873703148858445e+00 0.0000000000000000e+00 0.0000000000000000e+00  1.0949427556720859e+00 0.0000000000000000e+00 0.0000000000000000e+00  1.1007579177184550e+00 0.0000000000000000e+00 0.0000000000000000e+00  1.1047120209105321e+00 0.0000000000000000e+00 0.0000000000000000e+00  1.1082865899207155e+00 0.0000000000000000e+00 0.0000000000000000e+00  1.1082684090312467e+00 0.0000000000000000e+00 0.0000000000000000e+00  1.1072271798713973e+00 0.0000000000000000e+00 0.0000000000000000e+00  1.1040184325541491e+00 0.0000000000000000e+00 0.0000000000000000e+00  1.0985563027965959e+00 0.0000000000000000e+00 0.0000000000000000e+00  1.0918249240608973e+00 0.0000000000000000e+00 0.0000000000000000e+00  1.0842768005231931e+00 0.0000000000000000e+00 0.0000000000000000e+00  1.0760025668748159e+00 0.0000000000000000e+00 0.0000000000000000e+00  1.0665752565992210e+00 0.0000000000000000e+00 0.0000000000000000e+00  1.0581291747248627e+00 0.0000000000000000e+00 0.0000000000000000e+00  1.0492567510948507e+00 0.0000000000000000e+00 0.0000000000000000e+00  1.0329792705973451e+00 0.0000000000000000e+00 0.0000000000000000e+00  1.0261295643105399e+00 0.0000000000000000e+00 0.0000000000000000e+00  1.0207432823978302e+00 0.0000000000000000e+00 0.0000000000000000e+00  1.0159328498467082e+00 0.0000000000000000e+00 0.0000000000000000e+00  1.0120465967079657e+00 0.0000000000000000e+00 0.0000000000000000e+00  1.0089939983237233e+00 0.0000000000000000e+00 0.0000000000000000e+00  1.0067020993892872e+00 0.0000000000000000e+00 0.0000000000000000e+00  1.0045133707750944e+00 0.0000000000000000e+00 0.0000000000000000e+00  1.0030591893483483e+00 0.0000000000000000e+00 0.0000000000000000e+00  1.0020952923010922e+00 0.0000000000000000e+00 0.0000000000000000e+00  1.0010075321628595e+00 0.0000000000000000e+00 0.0000000000000000e+00  1.0009538556577144e+00 0.0000000000000000e+00 0.0000000000000000e+00  1.0000111888034116e+00 0.0000000000000000e+00 0.0000000000000000e+00  1.0000852523399157e+00 0.0000000000000000e+00 0.0000000000000000e+00  9.9975210128018577e-01 0.0000000000000000e+00 0.0000000000000000e+00  1.0004724193535359e+00 0.0000000000000000e+00 0.0000000000000000e+00  1.0002496241300924e+00 0.0000000000000000e+00 0.0000000000000000e+00  9.9979774364937091e-01 0.0000000000000000e+00 0.0000000000000000e+00  1.0000001304470401e+00 0.0000000000000000e+00 0.0000000000000000e+00  1.0000001304470401e+00 0.0000000000000000e+00 0.0000000000000000e+00  1.0000001304470401e+00 0.0000000000000000e+00 0.0000000000000000e+00  1.0000001304470401e+00 0.0000000000000000e+00 0.0000000000000000e+00  1.0000001304470401e+00 0.0000000000000000e+00 0.0000000000000000e+00  1.0000001304470401e+00 0.0000000000000000e+00 0.0000000000000000e+00  1.0000001304470401e+00 0.0000000000000000e+00 0.0000000000000000e+00  1.0000001304470401e+00 0.0000000000000000e+00 0.0000000000000000e+00  1.0000001304470401e+00 0.0000000000000000e+00 0.0000000000000000e+00  1.0000001304470401e+00 0.0000000000000000e+00 0.0000000000000000e+00  1.0000001304470401e+00 0.0000000000000000e+00 0.0000000000000000e+00  1.0000001304470401e+00 0.0000000000000000e+00 0.0000000000000000e+00  1.0000001304470401e+00 0.0000000000000000e+00 0.0000000000000000e+00  1.0000001304470401e+00 0.0000000000000000e+00 0.0000000000000000e+00  1.0000001304470401e+00 0.0000000000000000e+00 0.0000000000000000e+00  1.0000001304470401e+00 0.0000000000000000e+00 0.0000000000000000e+00  1.0000001304470401e+00 0.0000000000000000e+00 0.0000000000000000e+00  1.0000001304470401e+00 0.0000000000000000e+00 0.0000000000000000e+00  1.0000001304470401e+00 0.0000000000000000e+00 0.0000000000000000e+00  1.0000001304470401e+00 0.0000000000000000e+00 0.0000000000000000e+00  1.0436790141835992e+00 -9.9880733632735554e-03 0.0000000000000000e+00  1.0406345392305503e+00 -2.0173262530741354e-02 0.0000000000000000e+00  1.0382658452180842e+00 -3.1141721043315362e-02 0.0000000000000000e+00  1.0322952013463382e+00 -4.2673919705324054e-02 0.0000000000000000e+00  1.0262168939429395e+00 -5.8390394082953045e-02 0.0000000000000000e+00  1.0308793505618059e+00 -6.1926186571828391e-02 0.0000000000000000e+00  1.0351564867377849e+00 -6.5527539284388106e-02 0.0000000000000000e+00  1.0404841362433523e+00 -6.8812192085911286e-02 0.0000000000000000e+00  1.0460945366684715e+00 -7.1928394151259567e-02 0.0000000000000000e+00  1.0523533108899141e+00 -7.4608919993789033e-02 0.0000000000000000e+00  1.0592093756550649e+00 -7.6902734882402374e-02 0.0000000000000000e+00  1.0665349371360038e+00 -7.8496753731597826e-02 0.0000000000000000e+00  1.0743806592421077e+00 -7.9507871124528923e-02 0.0000000000000000e+00  1.0823657019710220e+00 -7.9581130310086304e-02 0.0000000000000000e+00  1.0906813662950035e+00 -7.8947832098398771e-02 0.0000000000000000e+00  1.0990425039347618e+00 -7.7467156229850273e-02 0.0000000000000000e+00  1.1074682406328042e+00 -7.4842757128899942e-02 0.0000000000000000e+00  1.1154973236851651e+00 -7.1199144264792250e-02 0.0000000000000000e+00  1.1232027430685998e+00 -6.6746176699976900e-02 0.0000000000000000e+00  1.1304146668653499e+00 -6.1377359073317581e-02 0.0000000000000000e+00  1.1368677610332458e+00 -5.5111758508588279e-02 0.0000000000000000e+00  1.1425827860306910e+00 -4.8136799900161613e-02 0.0000000000000000e+00  1.1473571163538649e+00 -4.0556137216684246e-02 0.0000000000000000e+00  1.1511986664379064e+00 -3.2276938463513732e-02 0.0000000000000000e+00  1.1539887578184351e+00 -2.3819828238886943e-02 0.0000000000000000e+00  1.1556956388179083e+00 -1.4922518506117657e-02 0.0000000000000000e+00  1.1560620963042569e+00 -5.8007699608746801e-03 0.0000000000000000e+00  1.1554164528632169e+00 3.2143811112966408e-03 0.0000000000000000e+00  1.1533584170368760e+00 1.2003484950390449e-02 0.0000000000000000e+00  1.1501348370622242e+00 2.0470420485676398e-02 0.0000000000000000e+00  1.1456546481717491e+00 2.8393805800184965e-02 0.0000000000000000e+00  1.1399919490251840e+00 3.5432687093174653e-02 0.0000000000000000e+00  1.1333056725985597e+00 4.1655743407915780e-02 0.0000000000000000e+00  1.1256418993310759e+00 4.6860967684936680e-02 0.0000000000000000e+00  1.1173151673358230e+00 5.0702267111123904e-02 0.0000000000000000e+00  1.1084151406923288e+00 5.3179476022855207e-02 0.0000