<?xml version="1.0"?>
<VTKFile type="UnstructuredGrid"  version="0.1"  >
<UnstructuredGrid>
<Piece  NumberOfPoints="10199" NumberOfCells="20110">
<Points>
<DataArray  type="Float64"  NumberOfComponents="3"  format="ascii">0 -5 0  8 -5 0  30 -5 0  40 -5 0  40 5 0  30 5 0  8 5 0  0 5 0  8 -2.5 0  15 -2.5 0  30 -2.5 0  30 2.5 0  15 2.5 0  8 2.5 0  10 0.5 0  10 -0.5 0  0 0 0  0.4210526315780956 -5 0  0.8421052631563433 -5 0  1.263157894734281 -5 0  1.684210526311999 -5 0  2.105263157889717 -5 0  2.526315789467435 -5 0  2.947368421045153 -5 0  3.368421052622872 -5 0  3.78947368420059 -5 0  4.210526315779479 -5 0  4.631578947359537 -5 0  5.052631578939595 -5 0  5.473684210519653 -5 0  5.89473684209971 -5 0  6.315789473679768 -5 0  6.736842105259826 -5 0  7.157894736839884 -5 0  7.578947368419942 -5 0  8.407407407405314 -5 0  8.814814814810628 -5 0  9.222222222215942 -5 0  9.629629629621256 -5 0  10.03703703702657 -5 0  10.44444444443188 -5 0  10.8518518518372 -5 0  11.25925925924251 -5 0  11.66666666664783 -5 0  12.07407407405314 -5 0  12.48148148145846 -5 0  12.88888888886377 -5 0  13.29629629626908 -5 0  13.7037037036744 -5 0  14.11111111107971 -5 0  14.51851851848502 -5 0  14.92592592589034 -5 0  15.33333333329565 -5 0  15.74074074070096 -5 0  16.14814814810754 -5 0  16.55555555551614 -5 0  16.96296296292474 -5 0  17.37037037033335 -5 0  17.77777777774195 -5 0  18.18518518515056 -5 0  18.59259259255916 -5 0  18.99999999996776 -5 0  19.40740740737636 -5 0  19.81481481478497 -5 0  20.22222222219357 -5 0  20.62962962960217 -5 0  21.03703703701077 -5 0  21.44444444441937 -5 0  21.85185185182797 -5 0  22.25925925923657 -5 0  22.66666666664518 -5 0  23.07407407405378 -5 0  23.48148148146238 -5 0  23.88888888887098 -5 0  24.29629629627958 -5 0  24.70370370368818 -5 0  25.11111111109678 -5 0  25.51851851850539 -5 0  25.92592592591399 -5 0  26.33333333332259 -5 0  26.74074074073119 -5 0  27.14814814813979 -5 0  27.55555555554839 -5 0  27.96296296295699 -5 0  28.3703703703656 -5 0  28.7777777777742 -5 0  29.1851851851828 -5 0  29.5925925925914 -5 0  30.41666666667852 -5 0  30.83333333335704 -5 0  31.25000000003556 -5 0  31.66666666671408 -5 0  32.08333333338936 -5 0  32.50000000005308 -5 0  32.9166666667168 -5 0  33.33333333338052 -5 0  33.75000000004424 -5 0  34.16666666670795 -5 0  34.58333333337167 -5 0  35.00000000003539 -5 0  35.41666666669911 -5 0  35.83333333336282 -5 0  36.25000000002654 -5 0  36.66666666669026 -5 0  37.08333333335398 -5 0  37.50000000001769 -5 0  37.91666666668141 -5 0  38.33333333334513 -5 0  38.75000000000885 -5 0  39.16666666667257 -5 0  39.58333333333628 -5 0  40 -4.583333333332821 0  40 -4.166666666665642 0  40 -3.74999999999855 0  40 -3.333333333333135 0  40 -2.916666666667806 0  40 -2.500000000002478 0  40 -2.083333333337148 0  40 -1.666666666671818 0  40 -1.250000000006488 0  40 -0.8333333333405228 0  40 -0.4166666666733416 0  40 -6.163070054299169e-12 0  40 0.4166666666610173 0  40 0.8333333333281976 0  40 1.249999999995378 0  40 1.666666666662558 0  40 2.083333333329739 0  40 2.499999999996919 0  40 2.916666666664099 0  40 3.33333333333128 0  40 3.74999999999846 0  40 4.166666666665641 0  40 4.583333333332821 0  39.58333333333628 5 0  39.16666666667256 5 0  38.75000000000885 5 0  38.33333333334513 5 0  37.91666666668141 5 0  37.50000000001769 5 0  37.08333333335398 5 0  36.66666666669025 5 0  36.25000000002654 5 0  35.83333333336282 5 0  35.41666666669911 5 0  35.00000000003539 5 0  34.58333333337167 5 0  34.16666666670795 5 0  33.75000000004424 5 0  33.33333333338052 5 0  32.9166666667168 5 0  32.50000000005308 5 0  32.08333333338936 5 0  31.66666666671408 5 0  31.25000000003556 5 0  30.83333333335704 5 0  30.41666666667852 5 0  29.59259259259259 5 0  29.18518518518519 5 0  28.77777777777778 5 0  28.37037037037037 5 0  27.96296296296296 5 0  27.55555555555556 5 0  27.14814814814815 5 0  26.74074074074074 5 0  26.33333333333333 5 0  25.92592592592593 5 0  25.51851851851852 5 0  25.11111111111111 5 0  24.7037037037037 5 0  24.2962962962963 5 0  23.88888888888889 5 0  23.48148148148148 5 0  23.07407407407408 5 0  22.66666666666667 5 0  22.25925925925926 5 0  21.85185185185185 5 0  21.44444444444445 5 0  21.03703703703704 5 0  20.62962962962963 5 0  20.22222222222222 5 0  19.81481481481482 5 0  19.40740740740741 5 0  19 5 0  18.5925925925926 5 0  18.18518518518519 5 0  17.77777777777778 5 0  17.37037037037037 5 0  16.96296296296296 5 0  16.55555555555556 5 0  16.14814814814815 5 0  15.74074074074074 5 0  15.33333333333333 5 0  14.92592592592593 5 0  14.51851851851852 5 0  14.11111111111111 5 0  13.70370370370371 5 0  13.2962962962963 5 0  12.88888888888889 5 0  12.48148148148148 5 0  12.07407407407408 5 0  11.66666666666667 5 0  11.25925925925926 5 0  10.85185185185185 5 0  10.44444444444445 5 0  10.03703703703704 5 0  9.629629629629633 5 0  9.222222222222221 5 0  8.814814814814817 5 0  8.407407407407408 5 0  7.5789473684193 5 0  7.157894736838599 5 0  6.73684210526082 5 0  6.315789473684795 5 0  5.894736842108769 5 0  5.473684210532742 5 0  5.052631578956715 5 0  4.631578947380689 5 0  4.210526315804662 5 0  3.789473684226299 5 0  3.368421052645599 5 0  2.947368421064898 5 0  2.526315789484198 5 0  2.105263157903499 5 0  1.6842105263228 5 0  1.2631578947421 5 0  0.8421052631613994 5 0  0.4210526315806993 5 0  0 4.545454545454545 0  0 4.09090909090909 0  0 3.636363636363634 0  0 3.18181818181818 0  0 2.727272727272726 0  0 2.272727272727271 0  0 1.818181818181817 0  0 1.363636363636363 0  0 0.9090909090909092 0  0 0.454545454545455 0  0 -0.4545454545450807 0  0 -0.9090909090895867 0  0 -1.363636363633713 0  0 -1.818181818177841 0  0 -2.272727272723127 0  0 -2.727272727269273 0  0 -3.181818181815419 0  0 -3.636363636361564 0  0 -4.090909090907709 0  0 -4.545454545453855 0  8 -4.499999999999999 0  8 -3.999999999999999 0  8 -3.499999999999999 0  8 -3 0  8.137254901963859 -2.5 0  8.274509803926303 -2.5 0  8.411764705886863 -2.5 0  8.549019607849138 -2.5 0  8.686274509809513 -2.5 0  8.82352941176989 -2.5 0  8.960784313730265 -2.5 0  9.098039215690642 -2.5 0  9.235294117651017 -2.5 0  9.372549019611395 -2.5 0  9.50980392157177 -2.5 0  9.647058823532147 -2.5 0  9.784313725492522 -2.5 0  9.921568627452897 -2.5 0  10.05882352941327 -2.5 0  10.19607843137365 -2.5 0  10.33333333333402 -2.5 0  10.4705882352944 -2.5 0  10.60784313725478 -2.5 0  10.74509803921515 -2.5 0  10.88235294117553 -2.5 0  11.0196078431359 -2.5 0  11.15686274509628 -2.5 0  11.29411764705665 -2.5 0  11.43137254901703 -2.5 0  11.56862745097915 -2.5 0  11.70588235294301 -2.5 0  11.84313725490686 -2.5 0  11.98039215687072 -2.5 0  12.11764705883209 -2.5 0  12.25490196079247 -2.5 0  12.39215686275285 -2.5 0  12.52941176471322 -2.5 0  12.6666666666736 -2.5 0  12.80392156863397 -2.5 0  12.94117647059435 -2.5 0  13.07843137255473 -2.5 0  13.2156862745151 -2.5 0  13.35294117647548 -2.5 0  13.49019607843586 -2.5 0  13.62745098039623 -2.5 0  13.76470588235661 -2.5 0  13.90196078431699 -2.5 0  14.03921568627736 -2.5 0  14.17647058823774 -2.5 0  14.31372549019812 -2.5 0  14.45098039215849 -2.5 0  14.58823529411887 -2.5 0  14.72549019607925 -2.5 0  14.86274509803962 -2.5 0  15.20270270270254 -2.5 0  15.40540540540509 -2.5 0  15.60810810810763 -2.5 0  15.81081081081017 -2.5 0  16.01351351351227 -2.5 0  16.21621621621265 -2.5 0  16.41891891891279 -2.5 0  16.62162162161294 -2.5 0  16.82432432431308 -2.5 0  17.02702702701322 -2.5 0  17.22972972971337 -2.5 0  17.43243243241351 -2.5 0  17.63513513511365 -2.5 0  17.83783783781379 -2.5 0  18.04054054051394 -2.5 0  18.24324324321408 -2.5 0  18.44594594591422 -2.5 0  18.64864864861436 -2.5 0  18.85135135131451 -2.5 0  19.05405405401465 -2.5 0  19.25675675671479 -2.5 0  19.45945945941494 -2.5 0  19.66216216211508 -2.5 0  19.86486486481522 -2.5 0  20.06756756751536 -2.5 0  20.27027027021551 -2.5 0  20.47297297291565 -2.5 0  20.6756756756158 -2.5 0  20.87837837831594 -2.5 0  21.08108108101608 -2.5 0  21.28378378371622 -2.5 0  21.48648648641637 -2.5 0  21.68918918911651 -2.5 0  21.89189189181666 -2.5 0  22.0945945945168 -2.5 0  22.29729729721694 -2.5 0  22.49999999991778 -2.5 0  22.70270270262203 -2.5 0  22.90540540532697 -2.5 0  23.10810810803191 -2.5 0  23.31081081073686 -2.5 0  23.5135135134418 -2.5 0  23.71621621614674 -2.5 0  23.91891891885169 -2.5 0  24.12162162155663 -2.5 0  24.32432432426158 -2.5 0  24.52702702696652 -2.5 0  24.72972972967146 -2.5 0  24.93243243237641 -2.5 0  25.13513513508135 -2.5 0  25.3378378377863 -2.5 0  25.54054054049124 -2.5 0  25.74324324319618 -2.5 0  25.94594594590112 -2.5 0  26.14864864860607 -2.5 0  26.35135135131101 -2.5 0  26.55405405401596 -2.5 0  26.7567567567209 -2.5 0  26.95945945942584 -2.5 0  27.16216216213079 -2.5 0  27.36486486483573 -2.5 0  27.56756756754068 -2.5 0  27.77027027024562 -2.5 0  27.97297297295056 -2.5 0  28.1756756756555 -2.5 0  28.37837837836045 -2.5 0  28.5810810810654 -2.5 0  28.78378378377034 -2.5 0  28.98648648647528 -2.5 0  29.18918918918023 -2.5 0  29.39189189188517 -2.5 0  29.59459459459011 -2.5 0  29.79729729729506 -2.5 0  30 -3.000000000000001 0  30 -3.500000000000001 0  30 -4.000000000000001 0  30 -4.5 0  8 4.499999999999999 0  8 3.999999999999999 0  8 3.499999999999999 0  8 3 0  8.137254901963859 2.5 0  8.274509803926303 2.5 0  8.411764705886863 2.5 0  8.549019607849138 2.5 0  8.686274509809513 2.5 0  8.82352941176989 2.5 0  8.960784313730265 2.5 0  9.098039215690642 2.5 0  9.235294117651017 2.5 0  9.372549019611395 2.5 0  9.50980392157177 2.5 0  9.647058823532147 2.5 0  9.784313725492522 2.5 0  9.921568627452897 2.5 0  10.05882352941327 2.5 0  10.19607843137365 2.5 0  10.33333333333402 2.5 0  10.4705882352944 2.5 0  10.60784313725478 2.5 0  10.74509803921515 2.5 0  10.88235294117553 2.5 0  11.0196078431359 2.5 0  11.15686274509628 2.5 0  11.29411764705665 2.5 0  11.43137254901703 2.5 0  11.56862745097915 2.5 0  11.70588235294301 2.5 0  11.84313725490686 2.5 0  11.98039215687072 2.5 0  12.11764705883209 2.5 0  12.25490196079247 2.5 0  1
[...]
<PointData  Vectors="f_17"> 
<DataArray  type="Float64"  Name="f_17"  NumberOfComponents="3" format="ascii">1.0000001376854135e+00 0.0000000000000000e+00 0.0000000000000000e+00  1.0509351096499826e+00 0.0000000000000000e+00 0.0000000000000000e+00  1.0161293526261559e+00 0.0000000000000000e+00 0.0000000000000000e+00  9.9757354777754270e-01 0.0000000000000000e+00 0.0000000000000000e+00  9.9752820985017965e-01 0.0000000000000000e+00 0.0000000000000000e+00  1.0159910099139364e+00 0.0000000000000000e+00 0.0000000000000000e+00  1.0503675470733973e+00 0.0000000000000000e+00 0.0000000000000000e+00  1.0000001376854135e+00 0.0000000000000000e+00 0.0000000000000000e+00  1.0221235535969890e+00 -6.1857061107866956e-02 0.0000000000000000e+00  1.1639564205617474e+00 4.7011404614447562e-02 0.0000000000000000e+00  1.0222867449788091e+00 6.5722025459741332e-03 0.0000000000000000e+00  1.0228581027072439e+00 -6.7562891185294514e-03 0.0000000000000000e+00  1.1706553180514976e+00 -3.1479727702574282e-02 0.0000000000000000e+00  1.0218472225610362e+00 6.1865188200838368e-02 0.0000000000000000e+00  0.0000000000000000e+00 0.0000000000000000e+00 0.0000000000000000e+00  0.0000000000000000e+00 0.0000000000000000e+00 0.0000000000000000e+00  1.0000001376854135e+00 0.0000000000000000e+00 0.0000000000000000e+00  9.9931913287288376e-01 0.0000000000000000e+00 0.0000000000000000e+00  9.9879858366806340e-01 0.0000000000000000e+00 0.0000000000000000e+00  1.0008436634701556e+00 0.0000000000000000e+00 0.0000000000000000e+00  1.0007093030073659e+00 0.0000000000000000e+00 0.0000000000000000e+00  1.0017104437302220e+00 0.0000000000000000e+00 0.0000000000000000e+00  1.0020891719616858e+00 0.0000000000000000e+00 0.0000000000000000e+00  1.0024606481240292e+00 0.0000000000000000e+00 0.0000000000000000e+00  1.0033819605108010e+00 0.0000000000000000e+00 0.0000000000000000e+00  1.0047406598741089e+00 0.0000000000000000e+00 0.0000000000000000e+00  1.0060592992722428e+00 0.0000000000000000e+00 0.0000000000000000e+00  1.0077882008722570e+00 0.0000000000000000e+00 0.0000000000000000e+00  1.0103391521065168e+00 0.0000000000000000e+00 0.0000000000000000e+00  1.0131182502350808e+00 0.0000000000000000e+00 0.0000000000000000e+00  1.0176311695627711e+00 0.0000000000000000e+00 0.0000000000000000e+00  1.0201344359762019e+00 0.0000000000000000e+00 0.0000000000000000e+00  1.0257249311750158e+00 0.0000000000000000e+00 0.0000000000000000e+00  1.0337141087615909e+00 0.0000000000000000e+00 0.0000000000000000e+00  1.0407583691310189e+00 0.0000000000000000e+00 0.0000000000000000e+00  1.0615782105942526e+00 0.0000000000000000e+00 0.0000000000000000e+00  1.0732334103644754e+00 0.0000000000000000e+00 0.0000000000000000e+00  1.0850222254675084e+00 0.0000000000000000e+00 0.0000000000000000e+00  1.0980858359520276e+00 0.0000000000000000e+00 0.0000000000000000e+00  1.1101844351647363e+00 0.0000000000000000e+00 0.0000000000000000e+00  1.1222071728304772e+00 0.0000000000000000e+00 0.0000000000000000e+00  1.1340791547200755e+00 0.0000000000000000e+00 0.0000000000000000e+00  1.1433544544196292e+00 0.0000000000000000e+00 0.0000000000000000e+00  1.1516902589096716e+00 0.0000000000000000e+00 0.0000000000000000e+00  1.1578637592504160e+00 0.0000000000000000e+00 0.0000000000000000e+00  1.1624539618979017e+00 0.0000000000000000e+00 0.0000000000000000e+00  1.1640758138781002e+00 0.0000000000000000e+00 0.0000000000000000e+00  1.1649022356897412e+00 0.0000000000000000e+00 0.0000000000000000e+00  1.1634884465109683e+00 0.0000000000000000e+00 0.0000000000000000e+00  1.1606591099261581e+00 0.0000000000000000e+00 0.0000000000000000e+00  1.1569686898784433e+00 0.0000000000000000e+00 0.0000000000000000e+00  1.1520624113922266e+00 0.0000000000000000e+00 0.0000000000000000e+00  1.1466483072492153e+00 0.0000000000000000e+00 0.0000000000000000e+00  1.1401849824603936e+00 0.0000000000000000e+00 0.0000000000000000e+00  1.1333069262569617e+00 0.0000000000000000e+00 0.0000000000000000e+00  1.1272418091773828e+00 0.0000000000000000e+00 0.0000000000000000e+00  1.1218127699391727e+00 0.0000000000000000e+00 0.0000000000000000e+00  1.1148322281650633e+00 0.0000000000000000e+00 0.0000000000000000e+00  1.1090551037055574e+00 0.0000000000000000e+00 0.0000000000000000e+00  1.1029605140047842e+00 0.0000000000000000e+00 0.0000000000000000e+00  1.0970001022565572e+00 0.0000000000000000e+00 0.0000000000000000e+00  1.0914417399166616e+00 0.0000000000000000e+00 0.0000000000000000e+00  1.0856106906474725e+00 0.0000000000000000e+00 0.0000000000000000e+00  1.0799087858392793e+00 0.0000000000000000e+00 0.0000000000000000e+00  1.0747644067997133e+00 0.0000000000000000e+00 0.0000000000000000e+00  1.0691041249181756e+00 0.0000000000000000e+00 0.0000000000000000e+00  1.0635578056105477e+00 0.0000000000000000e+00 0.0000000000000000e+00  1.0599083622152081e+00 0.0000000000000000e+00 0.0000000000000000e+00  1.0555382313328951e+00 0.0000000000000000e+00 0.0000000000000000e+00  1.0513746063936471e+00 0.0000000000000000e+00 0.0000000000000000e+00  1.0485867926102590e+00 0.0000000000000000e+00 0.0000000000000000e+00  1.0452461426336042e+00 0.0000000000000000e+00 0.0000000000000000e+00  1.0420408327426876e+00 0.0000000000000000e+00 0.0000000000000000e+00  1.0405594870116683e+00 0.0000000000000000e+00 0.0000000000000000e+00  1.0383141409900551e+00 0.0000000000000000e+00 0.0000000000000000e+00  1.0361025087301590e+00 0.0000000000000000e+00 0.0000000000000000e+00  1.0347635513964426e+00 0.0000000000000000e+00 0.0000000000000000e+00  1.0327829519307370e+00 0.0000000000000000e+00 0.0000000000000000e+00  1.0308389351799931e+00 0.0000000000000000e+00 0.0000000000000000e+00  1.0295877266714293e+00 0.0000000000000000e+00 0.0000000000000000e+00  1.0274884022066073e+00 0.0000000000000000e+00 0.0000000000000000e+00  1.0251873692557483e+00 0.0000000000000000e+00 0.0000000000000000e+00  1.0253792492954474e+00 0.0000000000000000e+00 0.0000000000000000e+00  1.0236506503718621e+00 0.0000000000000000e+00 0.0000000000000000e+00  1.0204178182805916e+00 0.0000000000000000e+00 0.0000000000000000e+00  1.0183568597667412e+00 0.0000000000000000e+00 0.0000000000000000e+00  1.0179890476052669e+00 0.0000000000000000e+00 0.0000000000000000e+00  1.0167961139650761e+00 0.0000000000000000e+00 0.0000000000000000e+00  1.0151878692069076e+00 0.0000000000000000e+00 0.0000000000000000e+00  1.0135423333544897e+00 0.0000000000000000e+00 0.0000000000000000e+00  1.0119252033357076e+00 0.0000000000000000e+00 0.0000000000000000e+00  1.0111860101476213e+00 0.0000000000000000e+00 0.0000000000000000e+00  1.0104664573934696e+00 0.0000000000000000e+00 0.0000000000000000e+00  1.0093481321519631e+00 0.0000000000000000e+00 0.0000000000000000e+00  1.0083068926863152e+00 0.0000000000000000e+00 0.0000000000000000e+00  1.0075603487455884e+00 0.0000000000000000e+00 0.0000000000000000e+00  1.0068577889456551e+00 0.0000000000000000e+00 0.0000000000000000e+00  1.0057135264264618e+00 0.0000000000000000e+00 0.0000000000000000e+00  1.0050903642356164e+00 0.0000000000000000e+00 0.0000000000000000e+00  1.0042648818057685e+00 0.0000000000000000e+00 0.0000000000000000e+00  1.0031747894438732e+00 0.0000000000000000e+00 0.0000000000000000e+00  1.0025854941315173e+00 0.0000000000000000e+00 0.0000000000000000e+00  1.0019133482616855e+00 0.0000000000000000e+00 0.0000000000000000e+00  1.0017524435017449e+00 0.0000000000000000e+00 0.0000000000000000e+00  1.0006637746760751e+00 0.0000000000000000e+00 0.0000000000000000e+00  1.0001300505997273e+00 0.0000000000000000e+00 0.0000000000000000e+00  9.9931154463794492e-01 0.0000000000000000e+00 0.0000000000000000e+00  9.9920359741979681e-01 0.0000000000000000e+00 0.0000000000000000e+00  9.9850257482532145e-01 0.0000000000000000e+00 0.0000000000000000e+00  9.9843786059511397e-01 0.0000000000000000e+00 0.0000000000000000e+00  9.9756347762125996e-01 0.0000000000000000e+00 0.0000000000000000e+00  9.9821321089641335e-01 3.3469464278436498e-04 0.0000000000000000e+00  9.9943630363590352e-01 5.6374327394901236e-04 0.0000000000000000e+00  1.0012783963665135e+00 8.7990503417333067e-04 0.0000000000000000e+00  1.0017138518270823e+00 1.2818310138282324e-03 0.0000000000000000e+00  1.0025217429005164e+00 1.5641637024785137e-03 0.0000000000000000e+00  1.0020094817008687e+00 1.9003617456451604e-03 0.0000000000000000e+00  1.0012737210630873e+00 2.1416393220389748e-03 0.0000000000000000e+00  1.0008501742813711e+00 2.2501475238723596e-03 0.0000000000000000e+00  9.9981295488632682e-01 2.1230054172867120e-03 0.0000000000000000e+00  9.9902720637713815e-01 1.8683480742207230e-03 0.0000000000000000e+00  9.9962357658207801e-01 5.0751385288468770e-04 0.0000000000000000e+00  9.9965132803023793e-01 -3.1654532296989790e-04 0.0000000000000000e+00  9.9852630345290283e-01 -1.4958393055374574e-03 0.0000000000000000e+00  9.9808418702017243e-01 -2.1195006367881737e-03 0.0000000000000000e+00  9.9975183563379288e-01 -1.9644913738804197e-03 0.0000000000000000e+00  1.0013723138856125e+00 -1.7692303622637634e-03 0.0000000000000000e+00  1.0010820850849600e+00 -2.2166082330011970e-03 0.0000000000000000e+00  1.0010789201612602e+00 -1.9276097688577813e-03 0.0000000000000000e+00  1.0006056205120319e+00 -1.5276386227622237e-03 0.0000000000000000e+00  1.0007777011964067e+00 -1.2284493318059750e-03 0.0000000000000000e+00  9.9984550918854553e-01 -8.8308794867211218e-04 0.0000000000000000e+00  9.9936075218550735e-01 -5.9433739988030390e-04 0.0000000000000000e+00  9.9829081155381250e-01 -3.5749646319025433e-04 0.0000000000000000e+00  9.9766886109218922e-01 0.0000000000000000e+00 0.0000000000000000e+00  9.9800512863961677e-01 0.0000000000000000e+00 0.0000000000000000e+00  9.9838658257767332e-01 0.0000000000000000e+00 0.0000000000000000e+00  9.9912804308492131e-01 0.0000000000000000e+00 0.0000000000000000e+00  9.9929374840223106e-01 0.0000000000000000e+00 0.0000000000000000e+00  9.9999279148443865e-01 0.0000000000000000e+00 0.0000000000000000e+00  1.0009073688279966e+00 0.0000000000000000e+00 0.0000000000000000e+00  1.0019638732588714e+00 0.0000000000000000e+00 0.0000000000000000e+00  1.0023784306201184e+00 0.0000000000000000e+00 0.0000000000000000e+00  1.0031338662279807e+00 0.0000000000000000e+00 0.0000000000000000e+00  1.0037932855449039e+00 0.0000000000000000e+00 0.0000000000000000e+00  1.0043640182176521e+00 0.0000000000000000e+00 0.0000000000000000e+00  1.0050294125426327e+00 0.0000000000000000e+00 0.0000000000000000e+00  1.0064198335563432e+00 0.0000000000000000e+00 0.0000000000000000e+00  1.0070489019678408e+00 0.0000000000000000e+00 0.0000000000000000e+00  1.0086332495943564e+00 0.0000000000000000e+00 0.0000000000000000e+00  1.0089424482408775e+00 0.0000000000000000e+00 0.0000000000000000e+00  1.0098098682607906e+00 0.0000000000000000e+00 0.0000000000000000e+00  1.0104412741510200e+00 0.0000000000000000e+00 0.0000000000000000e+00  1.0117072063799672e+00 0.0000000000000000e+00 0.0000000000000000e+00  1.0127730694543160e+00 0.0000000000000000e+00 0.0000000000000000e+00  1.0135108347429216e+00 0.0000000000000000e+00 0.0000000000000000e+00  1.0148387589874313e+00 0.0000000000000000e+00 0.0000000000000000e+00  1.0165023852195765e+00 0.0000000000000000e+00 0.0000000000000000e+00  1.0177946800772557e+00 0.0000000000000000e+00 0.0000000000000000e+00  1.0180613624469059e+00 0.0000000000000000e+00 0.0000000000000000e+00  1.0198969624131744e+00 0.0000000000000000e+00 0.0000000000000000e+00  1.0225991904190408e+00 0.0000000000000000e+00 0.0000000000000000e+00  1.0241870367503840e+00 0.0000000000000000e+00 0.0000000000000000e+00  1.0239881441358947e+00 0.0000000000000000e+00 0.0000000000000000e+00  1.0260640869445818e+00 0.0000000000000000e+00 0.0000000000000000e+00  1.0281316135074401e+00 0.0000000000000000e+00 0.0000000000000000e+00  1.0295027988647747e+00 0.0000000000000000e+00 0.0000000000000000e+00  1.0316288115281655e+00 0.0000000000000000e+00 0.0000000000000000e+00  1.0339216856307445e+00 0.0000000000000000e+00 0.0000000000000000e+00  1.0356784225377653e+00 0.0000000000000000e+00 0.0000000000000000e+00  1.0383671420680813e+00 0.0000000000000000e+00 0.0000000000000000e+00  1.0411044347717435e+00 0.0000000000000000e+00 0.0000000000000000e+00  1.0431244865272729e+00 0.0000000000000000e+00 0.0000000000000000e+00  1.0465208587425108e+00 0.0000000000000000e+00 0.0000000000000000e+00  1.0499461468561606e+00 0.0000000000000000e+00 0.0000000000000000e+00  1.0525728630317583e+00 0.0000000000000000e+00 0.0000000000000000e+00  1.0562584261092001e+00 0.0000000000000000e+00 0.0000000000000000e+00  1.0599279659944507e+00 0.0000000000000000e+00 0.0000000000000000e+00  1.0626579316545419e+00 0.0000000000000000e+00 0.0000000000000000e+00  1.0671760884948354e+00 0.0000000000000000e+00 0.0000000000000000e+00  1.0718226112690885e+00 0.0000000000000000e+00 0.0000000000000000e+00  1.0761461726568253e+00 0.0000000000000000e+00 0.0000000000000000e+00  1.0813913534357715e+00 0.0000000000000000e+00 0.0000000000000000e+00  1.0871007857498047e+00 0.0000000000000000e+00 0.0000000000000000e+00  1.0931229144561765e+00 0.0000000000000000e+00 0.0000000000000000e+00  1.0998364332325086e+00 0.0000000000000000e+00 0.0000000000000000e+00  1.1071869753249655e+00 0.0000000000000000e+00 0.0000000000000000e+00  1.1141869413924195e+00 0.0000000000000000e+00 0.0000000000000000e+00  1.1223321979851377e+00 0.0000000000000000e+00 0.0000000000000000e+00  1.1287464182758320e+00 0.0000000000000000e+00 0.0000000000000000e+00  1.1354821616696460e+00 0.0000000000000000e+00 0.0000000000000000e+00  1.1423395911444130e+00 0.0000000000000000e+00 0.0000000000000000e+00  1.1485436528957853e+00 0.0000000000000000e+00 0.0000000000000000e+00  1.1532437675057428e+00 0.0000000000000000e+00 0.0000000000000000e+00  1.1567728213869537e+00 0.0000000000000000e+00 0.0000000000000000e+00  1.1596285730318232e+00 0.0000000000000000e+00 0.0000000000000000e+00  1.1622146057870262e+00 0.0000000000000000e+00 0.0000000000000000e+00  1.1629880730904538e+00 0.0000000000000000e+00 0.0000000000000000e+00  1.1618484131439599e+00 0.0000000000000000e+00 0.0000000000000000e+00  1.1606050406458388e+00 0.0000000000000000e+00 0.0000000000000000e+00  1.1559192571132004e+00 0.0000000000000000e+00 0.0000000000000000e+00  1.1503168155012395e+00 0.0000000000000000e+00 0.0000000000000000e+00  1.1424776000026404e+00 0.0000000000000000e+00 0.0000000000000000e+00  1.1324937027480046e+00 0.0000000000000000e+00 0.0000000000000000e+00  1.1212629419650739e+00 0.0000000000000000e+00 0.0000000000000000e+00  1.1093575075233966e+00 0.0000000000000000e+00 0.0000000000000000e+00  1.0971230645615837e+00 0.0000000000000000e+00 0.0000000000000000e+00  1.0839986753714315e+00 0.0000000000000000e+00 0.0000000000000000e+00  1.0724748440295038e+00 0.0000000000000000e+00 0.0000000000000000e+00  1.0609087910020394e+00 0.0000000000000000e+00 0.0000000000000000e+00  1.0404470254221201e+00 0.0000000000000000e+00 0.0000000000000000e+00  1.0320705336451756e+00 0.0000000000000000e+00 0.0000000000000000e+00  1.0255628641202827e+00 0.0000000000000000e+00 0.0000000000000000e+00  1.0197354527863949e+00 0.0000000000000000e+00 0.0000000000000000e+00  1.0151355635095629e+00 0.0000000000000000e+00 0.0000000000000000e+00  1.0115027811792254e+00 0.0000000000000000e+00 0.0000000000000000e+00  1.0087081366358668e+00 0.0000000000000000e+00 0.0000000000000000e+00  1.0061245680793720e+00 0.0000000000000000e+00 0.0000000000000000e+00  1.0043246483022790e+00 0.0000000000000000e+00 0.0000000000000000e+00  1.0030721242449041e+00 0.0000000000000000e+00 0.0000000000000000e+00  1.0017086921313232e+00 0.0000000000000000e+00 0.0000000000000000e+00  1.0014463816629104e+00 0.0000000000000000e+00 0.0000000000000000e+00  1.0003255126245210e+00 0.0000000000000000e+00 0.0000000000000000e+00  1.0002581853071952e+00 0.0000000000000000e+00 0.0000000000000000e+00  9.9982656725307240e-01 0.0000000000000000e+00 0.0000000000000000e+00  1.0005053471480618e+00 0.0000000000000000e+00 0.0000000000000000e+00  1.0002549913759937e+00 0.0000000000000000e+00 0.0000000000000000e+00  9.9979442508005090e-01 0.0000000000000000e+00 0.0000000000000000e+00  1.0000001376854135e+00 0.0000000000000000e+00 0.0000000000000000e+00  1.0000001376854135e+00 0.0000000000000000e+00 0.0000000000000000e+00  1.0000001376854135e+00 0.0000000000000000e+00 0.0000000000000000e+00  1.0000001376854135e+00 0.0000000000000000e+00 0.0000000000000000e+00  1.0000001376854135e+00 0.0000000000000000e+00 0.0000000000000000e+00  1.0000001376854135e+00 0.0000000000000000e+00 0.0000000000000000e+00  1.0000001376854135e+00 0.0000000000000000e+00 0.0000000000000000e+00  1.0000001376854135e+00 0.0000000000000000e+00 0.0000000000000000e+00  1.0000001376854135e+00 0.0000000000000000e+00 0.0000000000000000e+00  1.0000001376854135e+00 0.0000000000000000e+00 0.0000000000000000e+00  1.0000001376854135e+00 0.0000000000000000e+00 0.0000000000000000e+00  1.0000001376854135e+00 0.0000000000000000e+00 0.0000000000000000e+00  1.0000001376854135e+00 0.0000000000000000e+00 0.0000000000000000e+00  1.0000001376854135e+00 0.0000000000000000e+00 0.0000000000000000e+00  1.0000001376854135e+00 0.0000000000000000e+00 0.0000000000000000e+00  1.0000001376854135e+00 0.0000000000000000e+00 0.0000000000000000e+00  1.0000001376854135e+00 0.0000000000000000e+00 0.0000000000000000e+00  1.0000001376854135e+00 0.0000000000000000e+00 0.0000000000000000e+00  1.0000001376854135e+00 0.0000000000000000e+00 0.0000000000000000e+00  1.0000001376854135e+00 0.0000000000000000e+00 0.0000000000000000e+00  1.0500021891753957e+00 -1.2301335606390401e-02 0.0000000000000000e+00  1.0458793276759033e+00 -2.4571451889366564e-02 0.0000000000000000e+00  1.0417766403237432e+00 -3.7076677145809415e-02 0.0000000000000000e+00  1.0335885911580418e+00 -4.9739361562160696e-02 0.0000000000000000e+00  1.0248937515506698e+00 -6.6553733554117311e-02 0.0000000000000000e+00  1.0295436289887367e+00 -7.0917797208980393e-02 0.0000000000000000e+00  1.0337746981583180e+00 -7.5436521563884917e-02 0.0000000000000000e+00  1.0390850436801966e+00 -7.9737153035714825e-02 0.0000000000000000e+00  1.0446949854126759e+00 -8.3976274500175821e-02 0.0000000000000000e+00  1.0509744007530826e+00 -8.7910581763302839e-02 0.0000000000000000e+00  1.0578823112709166e+00 -9.1585357313221774e-02 0.0000000000000000e+00  1.0653171824779839e+00 -9.4700461429035196e-02 0.0000000000000000e+00  1.0733070948378660e+00 -9.7406044949595261e-02 0.0000000000000000e+00  1.0815319320767298e+00 -9.9346683143294895e-02 0.0000000000000000e+00  1.0901659999339217e+00 -1.0075636219153104e-01 0.0000000000000000e+00  1.0989810333512251e+00 -1.0148675506840436e-01 0.0000000000000000e+00  1.1079681335957792e+00 -1.0130168214513628e-01 0.0000000000000000e+00  1.1167405159473665e+00 -1.0032898206302950e-01 0.0000000000000000e+00  1.1254033971865949e+00 -9.8731968823643768e-02 0.0000000000000000e+00  1.1338007955163032e+00 -9.6439155783030917e-02 0.0000000000000000e+00  1.1417315311762777e+00 -9.3471910366596564e-02 0.0000000000000000e+00  1.1492585327227915e+00 -8.9998219659886775e-02 0.0000000000000000e+00  1.1562345896495050e+00 -8.6096525609711066e-02 0.0000000000000000e+00  1.1627286864465123e+00 -8.1716984919588842e-02 0.0000000000000000e+00  1.1686789885574869e+00 -7.7216628911498261e-02 0.0000000000000000e+00  1.1741156536459483e+00 -7.2402011150401277e-02 0.0000000000000000e+00  1.1789264328623668e+00 -6.7390279847923673e-02 0.0000000000000000e+00  1.1833614342145014e+00 -6.2350268482406546e-02 0.0000000000000000e+00  1.1872079177477997e+00 -5.7287688651959309e-02 0.0000000000000000e+00  1.1906363794872390e+00 -5.2201912766783903e-02 0.0000000000000000e+00  1.1935984590631679e+00 -4.7127915430479068e-02 0.0000000000000000e+00  1.1961442813145935e+00 -4.2147372295898641e-02 0.0000000000000000e+00  1.1983349094048790e+00 -3.7143933649878801e-02 0.0000000000000000e+00  1.2001495903640462e+00 -3.2167713663927178e-02 0.0000000000000000e+00  1.2016363746361336e+00 -2.7278265173512447e-02 0.0000000000000000e+00  1.2027971969549389e+00 -2.244517