<?xml version="1.0"?>
<VTKFile type="UnstructuredGrid"  version="0.1"  >
<UnstructuredGrid>
<Piece  NumberOfPoints="10199" NumberOfCells="20110">
<Points>
<DataArray  type="Float64"  NumberOfComponents="3"  format="ascii">0 -5 0  8 -5 0  30 -5 0  40 -5 0  40 5 0  30 5 0  8 5 0  0 5 0  8 -2.5 0  15 -2.5 0  30 -2.5 0  30 2.5 0  15 2.5 0  8 2.5 0  10 0.5 0  10 -0.5 0  0 0 0  0.4210526315780956 -5 0  0.8421052631563433 -5 0  1.263157894734281 -5 0  1.684210526311999 -5 0  2.105263157889717 -5 0  2.526315789467435 -5 0  2.947368421045153 -5 0  3.368421052622872 -5 0  3.78947368420059 -5 0  4.210526315779479 -5 0  4.631578947359537 -5 0  5.052631578939595 -5 0  5.473684210519653 -5 0  5.89473684209971 -5 0  6.315789473679768 -5 0  6.736842105259826 -5 0  7.157894736839884 -5 0  7.578947368419942 -5 0  8.407407407405314 -5 0  8.814814814810628 -5 0  9.222222222215942 -5 0  9.629629629621256 -5 0  10.03703703702657 -5 0  10.44444444443188 -5 0  10.8518518518372 -5 0  11.25925925924251 -5 0  11.66666666664783 -5 0  12.07407407405314 -5 0  12.48148148145846 -5 0  12.88888888886377 -5 0  13.29629629626908 -5 0  13.7037037036744 -5 0  14.11111111107971 -5 0  14.51851851848502 -5 0  14.92592592589034 -5 0  15.33333333329565 -5 0  15.74074074070096 -5 0  16.14814814810754 -5 0  16.55555555551614 -5 0  16.96296296292474 -5 0  17.37037037033335 -5 0  17.77777777774195 -5 0  18.18518518515056 -5 0  18.59259259255916 -5 0  18.99999999996776 -5 0  19.40740740737636 -5 0  19.81481481478497 -5 0  20.22222222219357 -5 0  20.62962962960217 -5 0  21.03703703701077 -5 0  21.44444444441937 -5 0  21.85185185182797 -5 0  22.25925925923657 -5 0  22.66666666664518 -5 0  23.07407407405378 -5 0  23.48148148146238 -5 0  23.88888888887098 -5 0  24.29629629627958 -5 0  24.70370370368818 -5 0  25.11111111109678 -5 0  25.51851851850539 -5 0  25.92592592591399 -5 0  26.33333333332259 -5 0  26.74074074073119 -5 0  27.14814814813979 -5 0  27.55555555554839 -5 0  27.96296296295699 -5 0  28.3703703703656 -5 0  28.7777777777742 -5 0  29.1851851851828 -5 0  29.5925925925914 -5 0  30.41666666667852 -5 0  30.83333333335704 -5 0  31.25000000003556 -5 0  31.66666666671408 -5 0  32.08333333338936 -5 0  32.50000000005308 -5 0  32.9166666667168 -5 0  33.33333333338052 -5 0  33.75000000004424 -5 0  34.16666666670795 -5 0  34.58333333337167 -5 0  35.00000000003539 -5 0  35.41666666669911 -5 0  35.83333333336282 -5 0  36.25000000002654 -5 0  36.66666666669026 -5 0  37.08333333335398 -5 0  37.50000000001769 -5 0  37.91666666668141 -5 0  38.33333333334513 -5 0  38.75000000000885 -5 0  39.16666666667257 -5 0  39.58333333333628 -5 0  40 -4.583333333332821 0  40 -4.166666666665642 0  40 -3.74999999999855 0  40 -3.333333333333135 0  40 -2.916666666667806 0  40 -2.500000000002478 0  40 -2.083333333337148 0  40 -1.666666666671818 0  40 -1.250000000006488 0  40 -0.8333333333405228 0  40 -0.4166666666733416 0  40 -6.163070054299169e-12 0  40 0.4166666666610173 0  40 0.8333333333281976 0  40 1.249999999995378 0  40 1.666666666662558 0  40 2.083333333329739 0  40 2.499999999996919 0  40 2.916666666664099 0  40 3.33333333333128 0  40 3.74999999999846 0  40 4.166666666665641 0  40 4.583333333332821 0  39.58333333333628 5 0  39.16666666667256 5 0  38.75000000000885 5 0  38.33333333334513 5 0  37.91666666668141 5 0  37.50000000001769 5 0  37.08333333335398 5 0  36.66666666669025 5 0  36.25000000002654 5 0  35.83333333336282 5 0  35.41666666669911 5 0  35.00000000003539 5 0  34.58333333337167 5 0  34.16666666670795 5 0  33.75000000004424 5 0  33.33333333338052 5 0  32.9166666667168 5 0  32.50000000005308 5 0  32.08333333338936 5 0  31.66666666671408 5 0  31.25000000003556 5 0  30.83333333335704 5 0  30.41666666667852 5 0  29.59259259259259 5 0  29.18518518518519 5 0  28.77777777777778 5 0  28.37037037037037 5 0  27.96296296296296 5 0  27.55555555555556 5 0  27.14814814814815 5 0  26.74074074074074 5 0  26.33333333333333 5 0  25.92592592592593 5 0  25.51851851851852 5 0  25.11111111111111 5 0  24.7037037037037 5 0  24.2962962962963 5 0  23.88888888888889 5 0  23.48148148148148 5 0  23.07407407407408 5 0  22.66666666666667 5 0  22.25925925925926 5 0  21.85185185185185 5 0  21.44444444444445 5 0  21.03703703703704 5 0  20.62962962962963 5 0  20.22222222222222 5 0  19.81481481481482 5 0  19.40740740740741 5 0  19 5 0  18.5925925925926 5 0  18.18518518518519 5 0  17.77777777777778 5 0  17.37037037037037 5 0  16.96296296296296 5 0  16.55555555555556 5 0  16.14814814814815 5 0  15.74074074074074 5 0  15.33333333333333 5 0  14.92592592592593 5 0  14.51851851851852 5 0  14.11111111111111 5 0  13.70370370370371 5 0  13.2962962962963 5 0  12.88888888888889 5 0  12.48148148148148 5 0  12.07407407407408 5 0  11.66666666666667 5 0  11.25925925925926 5 0  10.85185185185185 5 0  10.44444444444445 5 0  10.03703703703704 5 0  9.629629629629633 5 0  9.222222222222221 5 0  8.814814814814817 5 0  8.407407407407408 5 0  7.5789473684193 5 0  7.157894736838599 5 0  6.73684210526082 5 0  6.315789473684795 5 0  5.894736842108769 5 0  5.473684210532742 5 0  5.052631578956715 5 0  4.631578947380689 5 0  4.210526315804662 5 0  3.789473684226299 5 0  3.368421052645599 5 0  2.947368421064898 5 0  2.526315789484198 5 0  2.105263157903499 5 0  1.6842105263228 5 0  1.2631578947421 5 0  0.8421052631613994 5 0  0.4210526315806993 5 0  0 4.545454545454545 0  0 4.09090909090909 0  0 3.636363636363634 0  0 3.18181818181818 0  0 2.727272727272726 0  0 2.272727272727271 0  0 1.818181818181817 0  0 1.363636363636363 0  0 0.9090909090909092 0  0 0.454545454545455 0  0 -0.4545454545450807 0  0 -0.9090909090895867 0  0 -1.363636363633713 0  0 -1.818181818177841 0  0 -2.272727272723127 0  0 -2.727272727269273 0  0 -3.181818181815419 0  0 -3.636363636361564 0  0 -4.090909090907709 0  0 -4.545454545453855 0  8 -4.499999999999999 0  8 -3.999999999999999 0  8 -3.499999999999999 0  8 -3 0  8.137254901963859 -2.5 0  8.274509803926303 -2.5 0  8.411764705886863 -2.5 0  8.549019607849138 -2.5 0  8.686274509809513 -2.5 0  8.82352941176989 -2.5 0  8.960784313730265 -2.5 0  9.098039215690642 -2.5 0  9.235294117651017 -2.5 0  9.372549019611395 -2.5 0  9.50980392157177 -2.5 0  9.647058823532147 -2.5 0  9.784313725492522 -2.5 0  9.921568627452897 -2.5 0  10.05882352941327 -2.5 0  10.19607843137365 -2.5 0  10.33333333333402 -2.5 0  10.4705882352944 -2.5 0  10.60784313725478 -2.5 0  10.74509803921515 -2.5 0  10.88235294117553 -2.5 0  11.0196078431359 -2.5 0  11.15686274509628 -2.5 0  11.29411764705665 -2.5 0  11.43137254901703 -2.5 0  11.56862745097915 -2.5 0  11.70588235294301 -2.5 0  11.84313725490686 -2.5 0  11.98039215687072 -2.5 0  12.11764705883209 -2.5 0  12.25490196079247 -2.5 0  12.39215686275285 -2.5 0  12.52941176471322 -2.5 0  12.6666666666736 -2.5 0  12.80392156863397 -2.5 0  12.94117647059435 -2.5 0  13.07843137255473 -2.5 0  13.2156862745151 -2.5 0  13.35294117647548 -2.5 0  13.49019607843586 -2.5 0  13.62745098039623 -2.5 0  13.76470588235661 -2.5 0  13.90196078431699 -2.5 0  14.03921568627736 -2.5 0  14.17647058823774 -2.5 0  14.31372549019812 -2.5 0  14.45098039215849 -2.5 0  14.58823529411887 -2.5 0  14.72549019607925 -2.5 0  14.86274509803962 -2.5 0  15.20270270270254 -2.5 0  15.40540540540509 -2.5 0  15.60810810810763 -2.5 0  15.81081081081017 -2.5 0  16.01351351351227 -2.5 0  16.21621621621265 -2.5 0  16.41891891891279 -2.5 0  16.62162162161294 -2.5 0  16.82432432431308 -2.5 0  17.02702702701322 -2.5 0  17.22972972971337 -2.5 0  17.43243243241351 -2.5 0  17.63513513511365 -2.5 0  17.83783783781379 -2.5 0  18.04054054051394 -2.5 0  18.24324324321408 -2.5 0  18.44594594591422 -2.5 0  18.64864864861436 -2.5 0  18.85135135131451 -2.5 0  19.05405405401465 -2.5 0  19.25675675671479 -2.5 0  19.45945945941494 -2.5 0  19.66216216211508 -2.5 0  19.86486486481522 -2.5 0  20.06756756751536 -2.5 0  20.27027027021551 -2.5 0  20.47297297291565 -2.5 0  20.6756756756158 -2.5 0  20.87837837831594 -2.5 0  21.08108108101608 -2.5 0  21.28378378371622 -2.5 0  21.48648648641637 -2.5 0  21.68918918911651 -2.5 0  21.89189189181666 -2.5 0  22.0945945945168 -2.5 0  22.29729729721694 -2.5 0  22.49999999991778 -2.5 0  22.70270270262203 -2.5 0  22.90540540532697 -2.5 0  23.10810810803191 -2.5 0  23.31081081073686 -2.5 0  23.5135135134418 -2.5 0  23.71621621614674 -2.5 0  23.91891891885169 -2.5 0  24.12162162155663 -2.5 0  24.32432432426158 -2.5 0  24.52702702696652 -2.5 0  24.72972972967146 -2.5 0  24.93243243237641 -2.5 0  25.13513513508135 -2.5 0  25.3378378377863 -2.5 0  25.54054054049124 -2.5 0  25.74324324319618 -2.5 0  25.94594594590112 -2.5 0  26.14864864860607 -2.5 0  26.35135135131101 -2.5 0  26.55405405401596 -2.5 0  26.7567567567209 -2.5 0  26.95945945942584 -2.5 0  27.16216216213079 -2.5 0  27.36486486483573 -2.5 0  27.56756756754068 -2.5 0  27.77027027024562 -2.5 0  27.97297297295056 -2.5 0  28.1756756756555 -2.5 0  28.37837837836045 -2.5 0  28.5810810810654 -2.5 0  28.78378378377034 -2.5 0  28.98648648647528 -2.5 0  29.18918918918023 -2.5 0  29.39189189188517 -2.5 0  29.59459459459011 -2.5 0  29.79729729729506 -2.5 0  30 -3.000000000000001 0  30 -3.500000000000001 0  30 -4.000000000000001 0  30 -4.5 0  8 4.499999999999999 0  8 3.999999999999999 0  8 3.499999999999999 0  8 3 0  8.137254901963859 2.5 0  8.274509803926303 2.5 0  8.411764705886863 2.5 0  8.549019607849138 2.5 0  8.686274509809513 2.5 0  8.82352941176989 2.5 0  8.960784313730265 2.5 0  9.098039215690642 2.5 0  9.235294117651017 2.5 0  9.372549019611395 2.5 0  9.50980392157177 2.5 0  9.647058823532147 2.5 0  9.784313725492522 2.5 0  9.921568627452897 2.5 0  10.05882352941327 2.5 0  10.19607843137365 2.5 0  10.33333333333402 2.5 0  10.4705882352944 2.5 0  10.60784313725478 2.5 0  10.74509803921515 2.5 0  10.88235294117553 2.5 0  11.0196078431359 2.5 0  11.15686274509628 2.5 0  11.29411764705665 2.5 0  11.43137254901703 2.5 0  11.56862745097915 2.5 0  11.70588235294301 2.5 0  11.84313725490686 2.5 0  11.98039215687072 2.5 0  12.11764705883209 2.5 0  12.25490196079247 2.5 0  1
[...]
<PointData  Vectors="f_17"> 
<DataArray  type="Float64"  Name="f_17"  NumberOfComponents="3" format="ascii">1.0000001324577790e+00 0.0000000000000000e+00 0.0000000000000000e+00  1.0457169152364938e+00 0.0000000000000000e+00 0.0000000000000000e+00  1.0830781175358939e+00 0.0000000000000000e+00 0.0000000000000000e+00  1.0538274493384370e+00 0.0000000000000000e+00 0.0000000000000000e+00  1.0368913499548207e+00 0.0000000000000000e+00 0.0000000000000000e+00  1.1374026220496538e+00 0.0000000000000000e+00 0.0000000000000000e+00  1.0441283561530923e+00 0.0000000000000000e+00 0.0000000000000000e+00  1.0000001324577790e+00 0.0000000000000000e+00 0.0000000000000000e+00  1.0238543520664256e+00 -5.5779650420432751e-02 0.0000000000000000e+00  1.1590650072033355e+00 4.5809754282157236e-02 0.0000000000000000e+00  9.6167941609955543e-01 -4.4468405654894849e-02 0.0000000000000000e+00  1.2014050806717638e+00 -1.4514901348327122e-01 0.0000000000000000e+00  1.0246821176429102e+00 -1.6134651410129507e-02 0.0000000000000000e+00  1.0196323084987631e+00 5.5749778366114132e-02 0.0000000000000000e+00  0.0000000000000000e+00 0.0000000000000000e+00 0.0000000000000000e+00  0.0000000000000000e+00 0.0000000000000000e+00 0.0000000000000000e+00  1.0000001324577790e+00 0.0000000000000000e+00 0.0000000000000000e+00  9.9932474903489099e-01 0.0000000000000000e+00 0.0000000000000000e+00  9.9881822150998045e-01 0.0000000000000000e+00 0.0000000000000000e+00  1.0009018303149910e+00 0.0000000000000000e+00 0.0000000000000000e+00  1.0007990625067995e+00 0.0000000000000000e+00 0.0000000000000000e+00  1.0018391703113998e+00 0.0000000000000000e+00 0.0000000000000000e+00  1.0022408161476921e+00 0.0000000000000000e+00 0.0000000000000000e+00  1.0026213984346839e+00 0.0000000000000000e+00 0.0000000000000000e+00  1.0035310022085986e+00 0.0000000000000000e+00 0.0000000000000000e+00  1.0048430918659239e+00 0.0000000000000000e+00 0.0000000000000000e+00  1.0060828598700673e+00 0.0000000000000000e+00 0.0000000000000000e+00  1.0076778662427950e+00 0.0000000000000000e+00 0.0000000000000000e+00  1.0100569860933049e+00 0.0000000000000000e+00 0.0000000000000000e+00  1.0125906595030079e+00 0.0000000000000000e+00 0.0000000000000000e+00  1.0167528544342594e+00 0.0000000000000000e+00 0.0000000000000000e+00  1.0188211001521763e+00 0.0000000000000000e+00 0.0000000000000000e+00  1.0237776297818872e+00 0.0000000000000000e+00 0.0000000000000000e+00  1.0309887269846356e+00 0.0000000000000000e+00 0.0000000000000000e+00  1.0370023406022477e+00 0.0000000000000000e+00 0.0000000000000000e+00  1.0545837184465416e+00 0.0000000000000000e+00 0.0000000000000000e+00  1.0640316545258806e+00 0.0000000000000000e+00 0.0000000000000000e+00  1.0730478579115243e+00 0.0000000000000000e+00 0.0000000000000000e+00  1.0826449972705268e+00 0.0000000000000000e+00 0.0000000000000000e+00  1.0907825764247929e+00 0.0000000000000000e+00 0.0000000000000000e+00  1.0982256702103124e+00 0.0000000000000000e+00 0.0000000000000000e+00  1.1052033555689085e+00 0.0000000000000000e+00 0.0000000000000000e+00  1.1096023360514728e+00 0.0000000000000000e+00 0.0000000000000000e+00  1.1131540543805887e+00 0.0000000000000000e+00 0.0000000000000000e+00  1.1152596405033037e+00 0.0000000000000000e+00 0.0000000000000000e+00  1.1167157327130992e+00 0.0000000000000000e+00 0.0000000000000000e+00  1.1163921322456880e+00 0.0000000000000000e+00 0.0000000000000000e+00  1.1163705712050096e+00 0.0000000000000000e+00 0.0000000000000000e+00  1.1152870736257943e+00 0.0000000000000000e+00 0.0000000000000000e+00  1.1130657444568204e+00 0.0000000000000000e+00 0.0000000000000000e+00  1.1099325266786617e+00 0.0000000000000000e+00 0.0000000000000000e+00  1.1052410805802766e+00 0.0000000000000000e+00 0.0000000000000000e+00  1.0992627926282521e+00 0.0000000000000000e+00 0.0000000000000000e+00  1.0918051116313978e+00 0.0000000000000000e+00 0.0000000000000000e+00  1.0837641287885893e+00 0.0000000000000000e+00 0.0000000000000000e+00  1.0771007217897275e+00 0.0000000000000000e+00 0.0000000000000000e+00  1.0723758951836322e+00 0.0000000000000000e+00 0.0000000000000000e+00  1.0685569530492383e+00 0.0000000000000000e+00 0.0000000000000000e+00  1.0684406583656363e+00 0.0000000000000000e+00 0.0000000000000000e+00  1.0712052175149838e+00 0.0000000000000000e+00 0.0000000000000000e+00  1.0765369830992388e+00 0.0000000000000000e+00 0.0000000000000000e+00  1.0839373457394283e+00 0.0000000000000000e+00 0.0000000000000000e+00  1.0913432049918017e+00 0.0000000000000000e+00 0.0000000000000000e+00  1.0973591922775006e+00 0.0000000000000000e+00 0.0000000000000000e+00  1.1012061628002516e+00 0.0000000000000000e+00 0.0000000000000000e+00  1.1005826193620869e+00 0.0000000000000000e+00 0.0000000000000000e+00  1.0964032481036792e+00 0.0000000000000000e+00 0.0000000000000000e+00  1.0907525457893406e+00 0.0000000000000000e+00 0.0000000000000000e+00  1.0826226021128509e+00 0.0000000000000000e+00 0.0000000000000000e+00  1.0742917973935295e+00 0.0000000000000000e+00 0.0000000000000000e+00  1.0683961864394629e+00 0.0000000000000000e+00 0.0000000000000000e+00  1.0644661938898303e+00 0.0000000000000000e+00 0.0000000000000000e+00  1.0640658205035523e+00 0.0000000000000000e+00 0.0000000000000000e+00  1.0693635349575563e+00 0.0000000000000000e+00 0.0000000000000000e+00  1.0776286995610191e+00 0.0000000000000000e+00 0.0000000000000000e+00  1.0890012142538241e+00 0.0000000000000000e+00 0.0000000000000000e+00  1.1029574387402483e+00 0.0000000000000000e+00 0.0000000000000000e+00  1.1156679303961636e+00 0.0000000000000000e+00 0.0000000000000000e+00  1.1254755226455035e+00 0.0000000000000000e+00 0.0000000000000000e+00  1.1311698342473304e+00 0.0000000000000000e+00 0.0000000000000000e+00  1.1302967536913662e+00 0.0000000000000000e+00 0.0000000000000000e+00  1.1237441251029243e+00 0.0000000000000000e+00 0.0000000000000000e+00  1.1159336784994929e+00 0.0000000000000000e+00 0.0000000000000000e+00  1.1045252472521112e+00 0.0000000000000000e+00 0.0000000000000000e+00  1.0918151394754889e+00 0.0000000000000000e+00 0.0000000000000000e+00  1.0826544698003233e+00 0.0000000000000000e+00 0.0000000000000000e+00  1.0787709665860368e+00 0.0000000000000000e+00 0.0000000000000000e+00  1.0783001339743299e+00 0.0000000000000000e+00 0.0000000000000000e+00  1.0920881873713324e+00 0.0000000000000000e+00 0.0000000000000000e+00  1.1034963743283313e+00 0.0000000000000000e+00 0.0000000000000000e+00  1.1162551840994230e+00 0.0000000000000000e+00 0.0000000000000000e+00  1.1285077260789762e+00 0.0000000000000000e+00 0.0000000000000000e+00  1.1369060445683548e+00 0.0000000000000000e+00 0.0000000000000000e+00  1.1390309580074609e+00 0.0000000000000000e+00 0.0000000000000000e+00  1.1348412737886979e+00 0.0000000000000000e+00 0.0000000000000000e+00  1.1260056270316856e+00 0.0000000000000000e+00 0.0000000000000000e+00  1.1138325773343780e+00 0.0000000000000000e+00 0.0000000000000000e+00  1.1001534101525656e+00 0.0000000000000000e+00 0.0000000000000000e+00  1.0875206569136930e+00 0.0000000000000000e+00 0.0000000000000000e+00  1.0765695274719635e+00 0.0000000000000000e+00 0.0000000000000000e+00  1.0677920089759763e+00 0.0000000000000000e+00 0.0000000000000000e+00  1.0622050868104289e+00 0.0000000000000000e+00 0.0000000000000000e+00  1.0590522621354805e+00 0.0000000000000000e+00 0.0000000000000000e+00  1.0585230549605118e+00 0.0000000000000000e+00 0.0000000000000000e+00  1.0585245690470675e+00 0.0000000000000000e+00 0.0000000000000000e+00  1.0597974704816018e+00 0.0000000000000000e+00 0.0000000000000000e+00  1.0607416021154974e+00 0.0000000000000000e+00 0.0000000000000000e+00  1.0617740642360542e+00 0.0000000000000000e+00 0.0000000000000000e+00  1.0611394776101251e+00 0.0000000000000000e+00 0.0000000000000000e+00  1.0599313142709157e+00 0.0000000000000000e+00 0.0000000000000000e+00  1.0567980538094137e+00 0.0000000000000000e+00 0.0000000000000000e+00  1.0547201340284400e+00 3.7694040609835889e-03 0.0000000000000000e+00  1.0567955112809699e+00 7.7929058046939878e-03 0.0000000000000000e+00  1.0600444038900347e+00 1.2671203930319149e-02 0.0000000000000000e+00  1.0623710401196582e+00 1.8923527706441342e-02 0.0000000000000000e+00  1.0650070475509523e+00 2.7053757611375007e-02 0.0000000000000000e+00  1.0640060936614839e+00 3.7063634464238861e-02 0.0000000000000000e+00  1.0555241688504142e+00 4.8892169740376426e-02 0.0000000000000000e+00  1.0330672441427937e+00 5.6985353864522532e-02 0.0000000000000000e+00  9.9238010288102985e-01 5.6054482246203630e-02 0.0000000000000000e+00  9.3929134352609345e-01 4.3672575371136932e-02 0.0000000000000000e+00  8.8507637051994814e-01 2.3524867206634745e-02 0.0000000000000000e+00  8.4131004369270190e-01 5.0345828314101683e-03 0.0000000000000000e+00  8.3126970737938144e-01 -4.1694623726517685e-03 0.0000000000000000e+00  8.7286418539484856e-01 1.0912033061325286e-03 0.0000000000000000e+00  9.4139423258441923e-01 1.0835881631857560e-02 0.0000000000000000e+00  9.9129867591104781e-01 1.2972262839708728e-02 0.0000000000000000e+00  1.0134745175707154e+00 7.5281283021085433e-03 0.0000000000000000e+00  1.0235731005019280e+00 1.8075593305875498e-03 0.0000000000000000e+00  1.0291681302646849e+00 -1.6218515407902979e-03 0.0000000000000000e+00  1.0335823690918897e+00 -3.3516177263466763e-03 0.0000000000000000e+00  1.0356038263360499e+00 -3.6054735676636029e-03 0.0000000000000000e+00  1.0371391884761654e+00 -2.9147566569476526e-03 0.0000000000000000e+00  1.0372573759326587e+00 -1.6718564414129724e-03 0.0000000000000000e+00  1.0388350432481865e+00 0.0000000000000000e+00 0.0000000000000000e+00  1.0421727102970457e+00 0.0000000000000000e+00 0.0000000000000000e+00  1.0468602319752147e+00 0.0000000000000000e+00 0.0000000000000000e+00  1.0533447951235066e+00 0.0000000000000000e+00 0.0000000000000000e+00  1.0605777427473688e+00 0.0000000000000000e+00 0.0000000000000000e+00  1.0695119261922352e+00 0.0000000000000000e+00 0.0000000000000000e+00  1.0792531716778191e+00 0.0000000000000000e+00 0.0000000000000000e+00  1.0891247568713449e+00 0.0000000000000000e+00 0.0000000000000000e+00  1.0970522509070220e+00 0.0000000000000000e+00 0.0000000000000000e+00  1.1033905835064775e+00 0.0000000000000000e+00 0.0000000000000000e+00  1.1061965971496308e+00 0.0000000000000000e+00 0.0000000000000000e+00  1.1054261423276561e+00 0.0000000000000000e+00 0.0000000000000000e+00  1.1011502964548765e+00 0.0000000000000000e+00 0.0000000000000000e+00  1.0954253703813495e+00 0.0000000000000000e+00 0.0000000000000000e+00  1.0880128021175992e+00 0.0000000000000000e+00 0.0000000000000000e+00  1.0828001092399069e+00 0.0000000000000000e+00 0.0000000000000000e+00  1.0787706638739194e+00 0.0000000000000000e+00 0.0000000000000000e+00  1.0789224495847203e+00 0.0000000000000000e+00 0.0000000000000000e+00  1.0828515063461666e+00 0.0000000000000000e+00 0.0000000000000000e+00  1.0913978971074476e+00 0.0000000000000000e+00 0.0000000000000000e+00  1.1024734142298420e+00 0.0000000000000000e+00 0.0000000000000000e+00  1.1151985478922497e+00 0.0000000000000000e+00 0.0000000000000000e+00  1.1277875411232503e+00 0.0000000000000000e+00 0.0000000000000000e+00  1.1411899978678337e+00 0.0000000000000000e+00 0.0000000000000000e+00  1.1394849719265767e+00 0.0000000000000000e+00 0.0000000000000000e+00  1.1308288179395487e+00 0.0000000000000000e+00 0.0000000000000000e+00  1.1192123814223516e+00 0.0000000000000000e+00 0.0000000000000000e+00  1.1064913967825940e+00 0.0000000000000000e+00 0.0000000000000000e+00  1.0932611670781254e+00 0.0000000000000000e+00 0.0000000000000000e+00  1.0805819359253335e+00 0.0000000000000000e+00 0.0000000000000000e+00  1.0742137286837843e+00 0.0000000000000000e+00 0.0000000000000000e+00  1.0722173147128016e+00 0.0000000000000000e+00 0.0000000000000000e+00  1.0737755491503540e+00 0.0000000000000000e+00 0.0000000000000000e+00  1.0797037387946848e+00 0.0000000000000000e+00 0.0000000000000000e+00  1.0883537885569101e+00 0.0000000000000000e+00 0.0000000000000000e+00  1.0974497619355108e+00 0.0000000000000000e+00 0.0000000000000000e+00  1.1066781763927465e+00 0.0000000000000000e+00 0.0000000000000000e+00  1.1130869228621885e+00 0.0000000000000000e+00 0.0000000000000000e+00  1.1147854371024322e+00 0.0000000000000000e+00 0.0000000000000000e+00  1.1127488859907002e+00 0.0000000000000000e+00 0.0000000000000000e+00  1.1062052099163822e+00 0.0000000000000000e+00 0.0000000000000000e+00  1.0954447464523196e+00 0.0000000000000000e+00 0.0000000000000000e+00  1.0845524910807725e+00 0.0000000000000000e+00 0.0000000000000000e+00  1.0741893776162159e+00 0.0000000000000000e+00 0.0000000000000000e+00  1.0650490877640031e+00 0.0000000000000000e+00 0.0000000000000000e+00  1.0609444466696776e+00 0.0000000000000000e+00 0.0000000000000000e+00  1.0603090294328288e+00 0.0000000000000000e+00 0.0000000000000000e+00  1.0624943128759625e+00 0.0000000000000000e+00 0.0000000000000000e+00  1.0677006851028297e+00 0.0000000000000000e+00 0.0000000000000000e+00  1.0747122873712034e+00 0.0000000000000000e+00 0.0000000000000000e+00  1.0817475829603942e+00 0.0000000000000000e+00 0.0000000000000000e+00  1.0884531388917702e+00 0.0000000000000000e+00 0.0000000000000000e+00  1.0935041889296035e+00 0.0000000000000000e+00 0.0000000000000000e+00  1.0959938414335695e+00 0.0000000000000000e+00 0.0000000000000000e+00  1.0969391159564927e+00 0.0000000000000000e+00 0.0000000000000000e+00  1.0950192211742029e+00 0.0000000000000000e+00 0.0000000000000000e+00  1.0925450531818146e+00 0.0000000000000000e+00 0.0000000000000000e+00  1.0911280355363129e+00 0.0000000000000000e+00 0.0000000000000000e+00  1.0906392885369025e+00 0.0000000000000000e+00 0.0000000000000000e+00  1.0913302017806215e+00 0.0000000000000000e+00 0.0000000000000000e+00  1.0935101365861131e+00 0.0000000000000000e+00 0.0000000000000000e+00  1.0976036161984137e+00 0.0000000000000000e+00 0.0000000000000000e+00  1.1034655435771175e+00 0.0000000000000000e+00 0.0000000000000000e+00  1.1089036338930744e+00 0.0000000000000000e+00 0.0000000000000000e+00  1.1133774189047267e+00 0.0000000000000000e+00 0.0000000000000000e+00  1.1179645392507267e+00 0.0000000000000000e+00 0.0000000000000000e+00  1.1189650534068591e+00 0.0000000000000000e+00 0.0000000000000000e+00  1.1185520460714258e+00 0.0000000000000000e+00 0.0000000000000000e+00  1.1154638708130835e+00 0.0000000000000000e+00 0.0000000000000000e+00  1.1095878305081441e+00 0.0000000000000000e+00 0.0000000000000000e+00  1.1019748399614653e+00 0.0000000000000000e+00 0.0000000000000000e+00  1.0932336483293903e+00 0.0000000000000000e+00 0.0000000000000000e+00  1.0836584190265806e+00 0.0000000000000000e+00 0.0000000000000000e+00  1.0728776300495262e+00 0.0000000000000000e+00 0.0000000000000000e+00  1.0632497033473691e+00 0.0000000000000000e+00 0.0000000000000000e+00  1.0533258838984700e+00 0.0000000000000000e+00 0.0000000000000000e+00  1.0354185442238224e+00 0.0000000000000000e+00 0.0000000000000000e+00  1.0280094607694923e+00 0.0000000000000000e+00 0.0000000000000000e+00  1.0222165516033801e+00 0.0000000000000000e+00 0.0000000000000000e+00  1.0170739330416640e+00 0.0000000000000000e+00 0.0000000000000000e+00  1.0129476287859147e+00 0.0000000000000000e+00 0.0000000000000000e+00  1.0097033573691958e+00 0.0000000000000000e+00 0.0000000000000000e+00  1.0072444808088197e+00 0.0000000000000000e+00 0.0000000000000000e+00  1.0049022180824447e+00 0.0000000000000000e+00 0.0000000000000000e+00  1.0033257246048231e+00 0.0000000000000000e+00 0.0000000000000000e+00  1.0022341055878807e+00 0.0000000000000000e+00 0.0000000000000000e+00  1.0010417055253682e+00 0.0000000000000000e+00 0.0000000000000000e+00  1.0009125331964697e+00 0.0000000000000000e+00 0.0000000000000000e+00  9.9991983932753870e-01 0.0000000000000000e+00 0.0000000000000000e+00  9.9996411539117769e-01 0.0000000000000000e+00 0.0000000000000000e+00  9.9964698135517671e-01 0.0000000000000000e+00 0.0000000000000000e+00  1.0003853611688347e+00 0.0000000000000000e+00 0.0000000000000000e+00  1.0002061507492361e+00 0.0000000000000000e+00 0.0000000000000000e+00  9.9978954208460502e-01 0.0000000000000000e+00 0.0000000000000000e+00  1.0000001324577790e+00 0.0000000000000000e+00 0.0000000000000000e+00  1.0000001324577790e+00 0.0000000000000000e+00 0.0000000000000000e+00  1.0000001324577790e+00 0.0000000000000000e+00 0.0000000000000000e+00  1.0000001324577790e+00 0.0000000000000000e+00 0.0000000000000000e+00  1.0000001324577790e+00 0.0000000000000000e+00 0.0000000000000000e+00  1.0000001324577790e+00 0.0000000000000000e+00 0.0000000000000000e+00  1.0000001324577790e+00 0.0000000000000000e+00 0.0000000000000000e+00  1.0000001324577790e+00 0.0000000000000000e+00 0.0000000000000000e+00  1.0000001324577790e+00 0.0000000000000000e+00 0.0000000000000000e+00  1.0000001324577790e+00 0.0000000000000000e+00 0.0000000000000000e+00  1.0000001324577790e+00 0.0000000000000000e+00 0.0000000000000000e+00  1.0000001324577790e+00 0.0000000000000000e+00 0.0000000000000000e+00  1.0000001324577790e+00 0.0000000000000000e+00 0.0000000000000000e+00  1.0000001324577790e+00 0.0000000000000000e+00 0.0000000000000000e+00  1.0000001324577790e+00 0.0000000000000000e+00 0.0000000000000000e+00  1.0000001324577790e+00 0.0000000000000000e+00 0.0000000000000000e+00  1.0000001324577790e+00 0.0000000000000000e+00 0.0000000000000000e+00  1.0000001324577790e+00 0.0000000000000000e+00 0.0000000000000000e+00  1.0000001324577790e+00 0.0000000000000000e+00 0.0000000000000000e+00  1.0000001324577790e+00 0.0000000000000000e+00 0.0000000000000000e+00  1.0450331986536925e+00 -1.0364942390699194e-02 0.0000000000000000e+00  1.0418356867515113e+00 -2.0898923757071503e-02 0.0000000000000000e+00  1.0392234607694051e+00 -3.2181244970080090e-02 0.0000000000000000e+00  1.0330023880606400e+00 -4.3891906824965257e-02 0.0000000000000000e+00  1.0267164647282405e+00 -5.9733681964472929e-02 0.0000000000000000e+00  1.0314435286365347e+00 -6.3306170391256800e-02 0.0000000000000000e+00  1.0357237540777031e+00 -6.6954733147286963e-02 0.0000000000000000e+00  1.0410728541160219e+00 -7.0273685262828206e-02 0.0000000000000000e+00  1.0466737387935974e+00 -7.3433814357159802e-02 0.0000000000000000e+00  1.0529095484191886e+00 -7.6150901377831273e-02 0.0000000000000000e+00  1.0597260656173884e+00 -7.8496910064120587e-02 0.0000000000000000e+00  1.0669735255490829e+00 -8.0144914661415989e-02 0.0000000000000000e+00  1.0747232658091321e+00 -8.1224790793311519e-02 0.0000000000000000e+00  1.0825514646188825e+00 -8.1375947435222945e-02 0.0000000000000000e+00  1.0906749579478479e+00 -8.0862045461916943e-02 0.0000000000000000e+00  1.0987765644714866e+00 -7.9550769892855658e-02 0.0000000000000000e+00  1.1069002126635217e+00 -7.7130805147279172e-02 0.0000000000000000e+00  1.1145521258795648e+00 -7.3749862515784054e-02 0.0000000000000000e+00  1.1218046119273677e+00 -6.9669354215411650e-02 0.0000000000000000e+00  1.1284950431986229e+00 -6.4782952617237322e-02 0.0000000000000000e+00  1.1343559407120161e+00 -5.9150979077655673e-02 0.0000000000000000e+00  1.1394051693108846e+00 -5.2980897668960664e-02 0.0000000000000000e+00  1.1434922163606258e+00 -4.6437309557924022e-02 0.0000000000000000e+00  1.1466227995794047e+00 -3.9429460701401194e-02 0.0000000000000000e+00  1.1487295451930968e+00 -3.2583202966535676e-02 0.0000000000000000e+00  1.1498270172565783e+00 -2.5558782498755886e-02 0.0000000000000000e+00  1.1497416783380960e+00 -1.8681131303879595e-02 0.0000000000000000e+00  1.1488821053126492e+00 -1.2311855572516604e-02 0.0000000000000000e+00  1.1469507025726482e+00 -6.5273055826659742e-03 0.0000000000000000e+00  1.1442792831633317e+00 -1.4211934215448358e-03 0.0000000000000000e+00  1.1408860220501866e+00 2.8944799173141944e-03 0.0000000000000000e+00  1.1369897715566557e+00 6.1168798794955263e-03 0.0000000000000000e+00  1.1327352910406447e+00 8.3985511539580813e-03 0.0000000000000000e+00  1.1283548873563756e+00 9.6941234095736847e-03 0.0000000000000000e+00  1.1241701125235362e+00 9.7942936094230337e-03 0.0000000000000000e+00  1.1202642301909365e+00 8.9138781652709134e