<?xml version="1.0"?>
<VTKFile type="UnstructuredGrid"  version="0.1"  >
<UnstructuredGrid>
<Piece  NumberOfPoints="10199" NumberOfCells="20110">
<Points>
<DataArray  type="Float64"  NumberOfComponents="3"  format="ascii">0 -5 0  8 -5 0  30 -5 0  40 -5 0  40 5 0  30 5 0  8 5 0  0 5 0  8 -2.5 0  15 -2.5 0  30 -2.5 0  30 2.5 0  15 2.5 0  8 2.5 0  10 0.5 0  10 -0.5 0  0 0 0  0.4210526315780956 -5 0  0.8421052631563433 -5 0  1.263157894734281 -5 0  1.684210526311999 -5 0  2.105263157889717 -5 0  2.526315789467435 -5 0  2.947368421045153 -5 0  3.368421052622872 -5 0  3.78947368420059 -5 0  4.210526315779479 -5 0  4.631578947359537 -5 0  5.052631578939595 -5 0  5.473684210519653 -5 0  5.89473684209971 -5 0  6.315789473679768 -5 0  6.736842105259826 -5 0  7.157894736839884 -5 0  7.578947368419942 -5 0  8.407407407405314 -5 0  8.814814814810628 -5 0  9.222222222215942 -5 0  9.629629629621256 -5 0  10.03703703702657 -5 0  10.44444444443188 -5 0  10.8518518518372 -5 0  11.25925925924251 -5 0  11.66666666664783 -5 0  12.07407407405314 -5 0  12.48148148145846 -5 0  12.88888888886377 -5 0  13.29629629626908 -5 0  13.7037037036744 -5 0  14.11111111107971 -5 0  14.51851851848502 -5 0  14.92592592589034 -5 0  15.33333333329565 -5 0  15.74074074070096 -5 0  16.14814814810754 -5 0  16.55555555551614 -5 0  16.96296296292474 -5 0  17.37037037033335 -5 0  17.77777777774195 -5 0  18.18518518515056 -5 0  18.59259259255916 -5 0  18.99999999996776 -5 0  19.40740740737636 -5 0  19.81481481478497 -5 0  20.22222222219357 -5 0  20.62962962960217 -5 0  21.03703703701077 -5 0  21.44444444441937 -5 0  21.85185185182797 -5 0  22.25925925923657 -5 0  22.66666666664518 -5 0  23.07407407405378 -5 0  23.48148148146238 -5 0  23.88888888887098 -5 0  24.29629629627958 -5 0  24.70370370368818 -5 0  25.11111111109678 -5 0  25.51851851850539 -5 0  25.92592592591399 -5 0  26.33333333332259 -5 0  26.74074074073119 -5 0  27.14814814813979 -5 0  27.55555555554839 -5 0  27.96296296295699 -5 0  28.3703703703656 -5 0  28.7777777777742 -5 0  29.1851851851828 -5 0  29.5925925925914 -5 0  30.41666666667852 -5 0  30.83333333335704 -5 0  31.25000000003556 -5 0  31.66666666671408 -5 0  32.08333333338936 -5 0  32.50000000005308 -5 0  32.9166666667168 -5 0  33.33333333338052 -5 0  33.75000000004424 -5 0  34.16666666670795 -5 0  34.58333333337167 -5 0  35.00000000003539 -5 0  35.41666666669911 -5 0  35.83333333336282 -5 0  36.25000000002654 -5 0  36.66666666669026 -5 0  37.08333333335398 -5 0  37.50000000001769 -5 0  37.91666666668141 -5 0  38.33333333334513 -5 0  38.75000000000885 -5 0  39.16666666667257 -5 0  39.58333333333628 -5 0  40 -4.583333333332821 0  40 -4.166666666665642 0  40 -3.74999999999855 0  40 -3.333333333333135 0  40 -2.916666666667806 0  40 -2.500000000002478 0  40 -2.083333333337148 0  40 -1.666666666671818 0  40 -1.250000000006488 0  40 -0.8333333333405228 0  40 -0.4166666666733416 0  40 -6.163070054299169e-12 0  40 0.4166666666610173 0  40 0.8333333333281976 0  40 1.249999999995378 0  40 1.666666666662558 0  40 2.083333333329739 0  40 2.499999999996919 0  40 2.916666666664099 0  40 3.33333333333128 0  40 3.74999999999846 0  40 4.166666666665641 0  40 4.583333333332821 0  39.58333333333628 5 0  39.16666666667256 5 0  38.75000000000885 5 0  38.33333333334513 5 0  37.91666666668141 5 0  37.50000000001769 5 0  37.08333333335398 5 0  36.66666666669025 5 0  36.25000000002654 5 0  35.83333333336282 5 0  35.41666666669911 5 0  35.00000000003539 5 0  34.58333333337167 5 0  34.16666666670795 5 0  33.75000000004424 5 0  33.33333333338052 5 0  32.9166666667168 5 0  32.50000000005308 5 0  32.08333333338936 5 0  31.66666666671408 5 0  31.25000000003556 5 0  30.83333333335704 5 0  30.41666666667852 5 0  29.59259259259259 5 0  29.18518518518519 5 0  28.77777777777778 5 0  28.37037037037037 5 0  27.96296296296296 5 0  27.55555555555556 5 0  27.14814814814815 5 0  26.74074074074074 5 0  26.33333333333333 5 0  25.92592592592593 5 0  25.51851851851852 5 0  25.11111111111111 5 0  24.7037037037037 5 0  24.2962962962963 5 0  23.88888888888889 5 0  23.48148148148148 5 0  23.07407407407408 5 0  22.66666666666667 5 0  22.25925925925926 5 0  21.85185185185185 5 0  21.44444444444445 5 0  21.03703703703704 5 0  20.62962962962963 5 0  20.22222222222222 5 0  19.81481481481482 5 0  19.40740740740741 5 0  19 5 0  18.5925925925926 5 0  18.18518518518519 5 0  17.77777777777778 5 0  17.37037037037037 5 0  16.96296296296296 5 0  16.55555555555556 5 0  16.14814814814815 5 0  15.74074074074074 5 0  15.33333333333333 5 0  14.92592592592593 5 0  14.51851851851852 5 0  14.11111111111111 5 0  13.70370370370371 5 0  13.2962962962963 5 0  12.88888888888889 5 0  12.48148148148148 5 0  12.07407407407408 5 0  11.66666666666667 5 0  11.25925925925926 5 0  10.85185185185185 5 0  10.44444444444445 5 0  10.03703703703704 5 0  9.629629629629633 5 0  9.222222222222221 5 0  8.814814814814817 5 0  8.407407407407408 5 0  7.5789473684193 5 0  7.157894736838599 5 0  6.73684210526082 5 0  6.315789473684795 5 0  5.894736842108769 5 0  5.473684210532742 5 0  5.052631578956715 5 0  4.631578947380689 5 0  4.210526315804662 5 0  3.789473684226299 5 0  3.368421052645599 5 0  2.947368421064898 5 0  2.526315789484198 5 0  2.105263157903499 5 0  1.6842105263228 5 0  1.2631578947421 5 0  0.8421052631613994 5 0  0.4210526315806993 5 0  0 4.545454545454545 0  0 4.09090909090909 0  0 3.636363636363634 0  0 3.18181818181818 0  0 2.727272727272726 0  0 2.272727272727271 0  0 1.818181818181817 0  0 1.363636363636363 0  0 0.9090909090909092 0  0 0.454545454545455 0  0 -0.4545454545450807 0  0 -0.9090909090895867 0  0 -1.363636363633713 0  0 -1.818181818177841 0  0 -2.272727272723127 0  0 -2.727272727269273 0  0 -3.181818181815419 0  0 -3.636363636361564 0  0 -4.090909090907709 0  0 -4.545454545453855 0  8 -4.499999999999999 0  8 -3.999999999999999 0  8 -3.499999999999999 0  8 -3 0  8.137254901963859 -2.5 0  8.274509803926303 -2.5 0  8.411764705886863 -2.5 0  8.549019607849138 -2.5 0  8.686274509809513 -2.5 0  8.82352941176989 -2.5 0  8.960784313730265 -2.5 0  9.098039215690642 -2.5 0  9.235294117651017 -2.5 0  9.372549019611395 -2.5 0  9.50980392157177 -2.5 0  9.647058823532147 -2.5 0  9.784313725492522 -2.5 0  9.921568627452897 -2.5 0  10.05882352941327 -2.5 0  10.19607843137365 -2.5 0  10.33333333333402 -2.5 0  10.4705882352944 -2.5 0  10.60784313725478 -2.5 0  10.74509803921515 -2.5 0  10.88235294117553 -2.5 0  11.0196078431359 -2.5 0  11.15686274509628 -2.5 0  11.29411764705665 -2.5 0  11.43137254901703 -2.5 0  11.56862745097915 -2.5 0  11.70588235294301 -2.5 0  11.84313725490686 -2.5 0  11.98039215687072 -2.5 0  12.11764705883209 -2.5 0  12.25490196079247 -2.5 0  12.39215686275285 -2.5 0  12.52941176471322 -2.5 0  12.6666666666736 -2.5 0  12.80392156863397 -2.5 0  12.94117647059435 -2.5 0  13.07843137255473 -2.5 0  13.2156862745151 -2.5 0  13.35294117647548 -2.5 0  13.49019607843586 -2.5 0  13.62745098039623 -2.5 0  13.76470588235661 -2.5 0  13.90196078431699 -2.5 0  14.03921568627736 -2.5 0  14.17647058823774 -2.5 0  14.31372549019812 -2.5 0  14.45098039215849 -2.5 0  14.58823529411887 -2.5 0  14.72549019607925 -2.5 0  14.86274509803962 -2.5 0  15.20270270270254 -2.5 0  15.40540540540509 -2.5 0  15.60810810810763 -2.5 0  15.81081081081017 -2.5 0  16.01351351351227 -2.5 0  16.21621621621265 -2.5 0  16.41891891891279 -2.5 0  16.62162162161294 -2.5 0  16.82432432431308 -2.5 0  17.02702702701322 -2.5 0  17.22972972971337 -2.5 0  17.43243243241351 -2.5 0  17.63513513511365 -2.5 0  17.83783783781379 -2.5 0  18.04054054051394 -2.5 0  18.24324324321408 -2.5 0  18.44594594591422 -2.5 0  18.64864864861436 -2.5 0  18.85135135131451 -2.5 0  19.05405405401465 -2.5 0  19.25675675671479 -2.5 0  19.45945945941494 -2.5 0  19.66216216211508 -2.5 0  19.86486486481522 -2.5 0  20.06756756751536 -2.5 0  20.27027027021551 -2.5 0  20.47297297291565 -2.5 0  20.6756756756158 -2.5 0  20.87837837831594 -2.5 0  21.08108108101608 -2.5 0  21.28378378371622 -2.5 0  21.48648648641637 -2.5 0  21.68918918911651 -2.5 0  21.89189189181666 -2.5 0  22.0945945945168 -2.5 0  22.29729729721694 -2.5 0  22.49999999991778 -2.5 0  22.70270270262203 -2.5 0  22.90540540532697 -2.5 0  23.10810810803191 -2.5 0  23.31081081073686 -2.5 0  23.5135135134418 -2.5 0  23.71621621614674 -2.5 0  23.91891891885169 -2.5 0  24.12162162155663 -2.5 0  24.32432432426158 -2.5 0  24.52702702696652 -2.5 0  24.72972972967146 -2.5 0  24.93243243237641 -2.5 0  25.13513513508135 -2.5 0  25.3378378377863 -2.5 0  25.54054054049124 -2.5 0  25.74324324319618 -2.5 0  25.94594594590112 -2.5 0  26.14864864860607 -2.5 0  26.35135135131101 -2.5 0  26.55405405401596 -2.5 0  26.7567567567209 -2.5 0  26.95945945942584 -2.5 0  27.16216216213079 -2.5 0  27.36486486483573 -2.5 0  27.56756756754068 -2.5 0  27.77027027024562 -2.5 0  27.97297297295056 -2.5 0  28.1756756756555 -2.5 0  28.37837837836045 -2.5 0  28.5810810810654 -2.5 0  28.78378378377034 -2.5 0  28.98648648647528 -2.5 0  29.18918918918023 -2.5 0  29.39189189188517 -2.5 0  29.59459459459011 -2.5 0  29.79729729729506 -2.5 0  30 -3.000000000000001 0  30 -3.500000000000001 0  30 -4.000000000000001 0  30 -4.5 0  8 4.499999999999999 0  8 3.999999999999999 0  8 3.499999999999999 0  8 3 0  8.137254901963859 2.5 0  8.274509803926303 2.5 0  8.411764705886863 2.5 0  8.549019607849138 2.5 0  8.686274509809513 2.5 0  8.82352941176989 2.5 0  8.960784313730265 2.5 0  9.098039215690642 2.5 0  9.235294117651017 2.5 0  9.372549019611395 2.5 0  9.50980392157177 2.5 0  9.647058823532147 2.5 0  9.784313725492522 2.5 0  9.921568627452897 2.5 0  10.05882352941327 2.5 0  10.19607843137365 2.5 0  10.33333333333402 2.5 0  10.4705882352944 2.5 0  10.60784313725478 2.5 0  10.74509803921515 2.5 0  10.88235294117553 2.5 0  11.0196078431359 2.5 0  11.15686274509628 2.5 0  11.29411764705665 2.5 0  11.43137254901703 2.5 0  11.56862745097915 2.5 0  11.70588235294301 2.5 0  11.84313725490686 2.5 0  11.98039215687072 2.5 0  12.11764705883209 2.5 0  12.25490196079247 2.5 0  1
[...]
<PointData  Vectors="f_17"> 
<DataArray  type="Float64"  Name="f_17"  NumberOfComponents="3" format="ascii">1.0000001314759592e+00 0.0000000000000000e+00 0.0000000000000000e+00  1.0408830792260040e+00 0.0000000000000000e+00 0.0000000000000000e+00  1.0648262934339801e+00 0.0000000000000000e+00 0.0000000000000000e+00  1.0943436808372193e+00 0.0000000000000000e+00 0.0000000000000000e+00  1.0730085689227487e+00 0.0000000000000000e+00 0.0000000000000000e+00  1.0494450175222150e+00 0.0000000000000000e+00 0.0000000000000000e+00  1.0400147563650939e+00 0.0000000000000000e+00 0.0000000000000000e+00  1.0000001314759592e+00 0.0000000000000000e+00 0.0000000000000000e+00  1.0241114419203403e+00 -5.0131952117800152e-02 0.0000000000000000e+00  1.0970269234954644e+00 8.2421733748990908e-02 0.0000000000000000e+00  1.1556134508752665e+00 -1.0245350045852069e-02 0.0000000000000000e+00  9.8609845435199428e-01 -1.2495164079640717e-02 0.0000000000000000e+00  1.0056651371646750e+00 3.6000889050209206e-02 0.0000000000000000e+00  1.0187130375333184e+00 5.1521134338292897e-02 0.0000000000000000e+00  0.0000000000000000e+00 0.0000000000000000e+00 0.0000000000000000e+00  0.0000000000000000e+00 0.0000000000000000e+00 0.0000000000000000e+00  1.0000001314759592e+00 0.0000000000000000e+00 0.0000000000000000e+00  9.9931180148869725e-01 0.0000000000000000e+00 0.0000000000000000e+00  9.9882640793905519e-01 0.0000000000000000e+00 0.0000000000000000e+00  1.0009598520978948e+00 0.0000000000000000e+00 0.0000000000000000e+00  1.0008760928209524e+00 0.0000000000000000e+00 0.0000000000000000e+00  1.0019434168466603e+00 0.0000000000000000e+00 0.0000000000000000e+00  1.0023381950492440e+00 0.0000000000000000e+00 0.0000000000000000e+00  1.0026694418894340e+00 0.0000000000000000e+00 0.0000000000000000e+00  1.0034848025248491e+00 0.0000000000000000e+00 0.0000000000000000e+00  1.0046806847101051e+00 0.0000000000000000e+00 0.0000000000000000e+00  1.0057337166170615e+00 0.0000000000000000e+00 0.0000000000000000e+00  1.0071436084585186e+00 0.0000000000000000e+00 0.0000000000000000e+00  1.0092797564718017e+00 0.0000000000000000e+00 0.0000000000000000e+00  1.0115528694397269e+00 0.0000000000000000e+00 0.0000000000000000e+00  1.0154201868528341e+00 0.0000000000000000e+00 0.0000000000000000e+00  1.0170588116993611e+00 0.0000000000000000e+00 0.0000000000000000e+00  1.0215079990449565e+00 0.0000000000000000e+00 0.0000000000000000e+00  1.0280946381786189e+00 0.0000000000000000e+00 0.0000000000000000e+00  1.0332987037867560e+00 0.0000000000000000e+00 0.0000000000000000e+00  1.0483929236190277e+00 0.0000000000000000e+00 0.0000000000000000e+00  1.0562007539566491e+00 0.0000000000000000e+00 0.0000000000000000e+00  1.0632645836660302e+00 0.0000000000000000e+00 0.0000000000000000e+00  1.0705906332216073e+00 0.0000000000000000e+00 0.0000000000000000e+00  1.0763538800339374e+00 0.0000000000000000e+00 0.0000000000000000e+00  1.0813569657846198e+00 0.0000000000000000e+00 0.0000000000000000e+00  1.0860363328288689e+00 0.0000000000000000e+00 0.0000000000000000e+00  1.0884255321805802e+00 0.0000000000000000e+00 0.0000000000000000e+00  1.0903481417415362e+00 0.0000000000000000e+00 0.0000000000000000e+00  1.0911594695546833e+00 0.0000000000000000e+00 0.0000000000000000e+00  1.0916130579817944e+00 0.0000000000000000e+00 0.0000000000000000e+00  1.0902803146878790e+00 0.0000000000000000e+00 0.0000000000000000e+00  1.0890085143663786e+00 0.0000000000000000e+00 0.0000000000000000e+00  1.0863726272826939e+00 0.0000000000000000e+00 0.0000000000000000e+00  1.0821763009131258e+00 0.0000000000000000e+00 0.0000000000000000e+00  1.0769637605645410e+00 0.0000000000000000e+00 0.0000000000000000e+00  1.0704662311184618e+00 0.0000000000000000e+00 0.0000000000000000e+00  1.0633969270922818e+00 0.0000000000000000e+00 0.0000000000000000e+00  1.0560032190418858e+00 0.0000000000000000e+00 0.0000000000000000e+00  1.0492550704025216e+00 0.0000000000000000e+00 0.0000000000000000e+00  1.0451649015272111e+00 0.0000000000000000e+00 0.0000000000000000e+00  1.0437220990738951e+00 0.0000000000000000e+00 0.0000000000000000e+00  1.0434638074349731e+00 0.0000000000000000e+00 0.0000000000000000e+00  1.0462988576804435e+00 0.0000000000000000e+00 0.0000000000000000e+00  1.0505677199849048e+00 0.0000000000000000e+00 0.0000000000000000e+00  1.0552782147450652e+00 0.0000000000000000e+00 0.0000000000000000e+00  1.0598818912556676e+00 0.0000000000000000e+00 0.0000000000000000e+00  1.0623694793776493e+00 0.0000000000000000e+00 0.0000000000000000e+00  1.0626515804727352e+00 0.0000000000000000e+00 0.0000000000000000e+00  1.0609345753879509e+00 0.0000000000000000e+00 0.0000000000000000e+00  1.0565201493240017e+00 0.0000000000000000e+00 0.0000000000000000e+00  1.0510644447551432e+00 0.0000000000000000e+00 0.0000000000000000e+00  1.0471709602563497e+00 0.0000000000000000e+00 0.0000000000000000e+00  1.0433978231264744e+00 0.0000000000000000e+00 0.0000000000000000e+00  1.0413418995515087e+00 0.0000000000000000e+00 0.0000000000000000e+00  1.0426188899013835e+00 0.0000000000000000e+00 0.0000000000000000e+00  1.0451134127165564e+00 0.0000000000000000e+00 0.0000000000000000e+00  1.0490108437907477e+00 0.0000000000000000e+00 0.0000000000000000e+00  1.0551137899799368e+00 0.0000000000000000e+00 0.0000000000000000e+00  1.0597840651988795e+00 0.0000000000000000e+00 0.0000000000000000e+00  1.0628228766440413e+00 0.0000000000000000e+00 0.0000000000000000e+00  1.0645161947397115e+00 0.0000000000000000e+00 0.0000000000000000e+00  1.0632386287761244e+00 0.0000000000000000e+00 0.0000000000000000e+00  1.0600863035405914e+00 0.0000000000000000e+00 0.0000000000000000e+00  1.0565594318963820e+00 0.0000000000000000e+00 0.0000000000000000e+00  1.0521867039898776e+00 0.0000000000000000e+00 0.0000000000000000e+00  1.0486006909344843e+00 0.0000000000000000e+00 0.0000000000000000e+00  1.0491825822868426e+00 0.0000000000000000e+00 0.0000000000000000e+00  1.0497088106975947e+00 0.0000000000000000e+00 0.0000000000000000e+00  1.0504266280388219e+00 0.0000000000000000e+00 0.0000000000000000e+00  1.0535364512258196e+00 0.0000000000000000e+00 0.0000000000000000e+00  1.0585472633300417e+00 0.0000000000000000e+00 0.0000000000000000e+00  1.0622394684739276e+00 0.0000000000000000e+00 0.0000000000000000e+00  1.0652557274202259e+00 0.0000000000000000e+00 0.0000000000000000e+00  1.0629042403063997e+00 0.0000000000000000e+00 0.0000000000000000e+00  1.0589997522410823e+00 0.0000000000000000e+00 0.0000000000000000e+00  1.0555227766294388e+00 0.0000000000000000e+00 0.0000000000000000e+00  1.0524354862448511e+00 0.0000000000000000e+00 0.0000000000000000e+00  1.0503751448545535e+00 0.0000000000000000e+00 0.0000000000000000e+00  1.0503117047968977e+00 0.0000000000000000e+00 0.0000000000000000e+00  1.0524933618782988e+00 0.0000000000000000e+00 0.0000000000000000e+00  1.0562381100599274e+00 0.0000000000000000e+00 0.0000000000000000e+00  1.0601774627202991e+00 0.0000000000000000e+00 0.0000000000000000e+00  1.0644416119094546e+00 0.0000000000000000e+00 0.0000000000000000e+00  1.0672547331246691e+00 0.0000000000000000e+00 0.0000000000000000e+00  1.0681648743838679e+00 0.0000000000000000e+00 0.0000000000000000e+00  1.0678236139003439e+00 0.0000000000000000e+00 0.0000000000000000e+00  1.0659763626708973e+00 0.0000000000000000e+00 0.0000000000000000e+00  1.0639502917742145e+00 0.0000000000000000e+00 0.0000000000000000e+00  1.0614282404356672e+00 0.0000000000000000e+00 0.0000000000000000e+00  1.0607217015090973e+00 0.0000000000000000e+00 0.0000000000000000e+00  1.0618463801356088e+00 0.0000000000000000e+00 0.0000000000000000e+00  1.0659598439742890e+00 0.0000000000000000e+00 0.0000000000000000e+00  1.0717341551040092e+00 0.0000000000000000e+00 0.0000000000000000e+00  1.0797162940433258e+00 0.0000000000000000e+00 0.0000000000000000e+00  1.0870747634296323e+00 0.0000000000000000e+00 0.0000000000000000e+00  1.0961117345144906e+00 -6.2797089385817949e-03 0.0000000000000000e+00  1.1009461123182769e+00 -1.3794934580451034e-02 0.0000000000000000e+00  1.1103069797320926e+00 -2.3987342478494822e-02 0.0000000000000000e+00  1.1258116269370058e+00 -3.9292726810643025e-02 0.0000000000000000e+00  1.1520432627054487e+00 -6.3139258637055121e-02 0.0000000000000000e+00  1.1758890960313793e+00 -9.5086122702736434e-02 0.0000000000000000e+00  1.1710066434346553e+00 -1.3025683283965298e-01 0.0000000000000000e+00  1.1092572430244978e+00 -1.5669329408825572e-01 0.0000000000000000e+00  9.8890260964277477e-01 -1.5918800774050287e-01 0.0000000000000000e+00  8.5099584615277946e-01 -1.3423447925602455e-01 0.0000000000000000e+00  7.4809816925536177e-01 -1.0387363533832793e-01 0.0000000000000000e+00  7.1131331782571905e-01 -8.1579479563135812e-02 0.0000000000000000e+00  7.3125807457220948e-01 -7.2581156053158277e-02 0.0000000000000000e+00  7.8644665129190561e-01 -6.7706864240327944e-02 0.0000000000000000e+00  8.5333449669163330e-01 -6.8125807279410755e-02 0.0000000000000000e+00  9.1921663849113266e-01 -5.6438773053504775e-02 0.0000000000000000e+00  9.7347538313876236e-01 -3.9452456538873554e-02 0.0000000000000000e+00  1.0135036247873115e+00 -2.4072549167403236e-02 0.0000000000000000e+00  1.0399367094985441e+00 -1.1985792114681631e-02 0.0000000000000000e+00  1.0570516123842932e+00 -5.2912665095665098e-03 0.0000000000000000e+00  1.0661454165262254e+00 -1.6288054752357901e-03 0.0000000000000000e+00  1.0712702513901049e+00 -1.0783293636877911e-04 0.0000000000000000e+00  1.0729746097377242e+00 1.9067223215058830e-04 0.0000000000000000e+00  1.0732298533664815e+00 0.0000000000000000e+00 0.0000000000000000e+00  1.0745941395773100e+00 0.0000000000000000e+00 0.0000000000000000e+00  1.0761269521863281e+00 0.0000000000000000e+00 0.0000000000000000e+00  1.0772385536976972e+00 0.0000000000000000e+00 0.0000000000000000e+00  1.0762996672863987e+00 0.0000000000000000e+00 0.0000000000000000e+00  1.0740594844234883e+00 0.0000000000000000e+00 0.0000000000000000e+00  1.0704307537368425e+00 0.0000000000000000e+00 0.0000000000000000e+00  1.0658458375507673e+00 0.0000000000000000e+00 0.0000000000000000e+00  1.0605896803904953e+00 0.0000000000000000e+00 0.0000000000000000e+00  1.0565125447936170e+00 0.0000000000000000e+00 0.0000000000000000e+00  1.0542137911299208e+00 0.0000000000000000e+00 0.0000000000000000e+00  1.0537745924478892e+00 0.0000000000000000e+00 0.0000000000000000e+00  1.0554680837384693e+00 0.0000000000000000e+00 0.0000000000000000e+00  1.0590627358997948e+00 0.0000000000000000e+00 0.0000000000000000e+00  1.0623407659211757e+00 0.0000000000000000e+00 0.0000000000000000e+00  1.0657797685304164e+00 0.0000000000000000e+00 0.0000000000000000e+00  1.0664692049444195e+00 0.0000000000000000e+00 0.0000000000000000e+00  1.0657673045802549e+00 0.0000000000000000e+00 0.0000000000000000e+00  1.0629888400171075e+00 0.0000000000000000e+00 0.0000000000000000e+00  1.0594850141489109e+00 0.0000000000000000e+00 0.0000000000000000e+00  1.0554618081730289e+00 0.0000000000000000e+00 0.0000000000000000e+00  1.0514754634227381e+00 0.0000000000000000e+00 0.0000000000000000e+00  1.0496133009076845e+00 0.0000000000000000e+00 0.0000000000000000e+00  1.0504426594712655e+00 0.0000000000000000e+00 0.0000000000000000e+00  1.0538198930470757e+00 0.0000000000000000e+00 0.0000000000000000e+00  1.0567592664033800e+00 0.0000000000000000e+00 0.0000000000000000e+00  1.0609980771091261e+00 0.0000000000000000e+00 0.0000000000000000e+00  1.0648772212486253e+00 0.0000000000000000e+00 0.0000000000000000e+00  1.0655100748579291e+00 0.0000000000000000e+00 0.0000000000000000e+00  1.0621337271219791e+00 0.0000000000000000e+00 0.0000000000000000e+00  1.0592856837667599e+00 0.0000000000000000e+00 0.0000000000000000e+00  1.0552143600467887e+00 0.0000000000000000e+00 0.0000000000000000e+00  1.0503019302504528e+00 0.0000000000000000e+00 0.0000000000000000e+00  1.0470542978041171e+00 0.0000000000000000e+00 0.0000000000000000e+00  1.0455242316509969e+00 0.0000000000000000e+00 0.0000000000000000e+00  1.0453590128164001e+00 0.0000000000000000e+00 0.0000000000000000e+00  1.0479233573940516e+00 0.0000000000000000e+00 0.0000000000000000e+00  1.0518653691721145e+00 0.0000000000000000e+00 0.0000000000000000e+00  1.0554315145145581e+00 0.0000000000000000e+00 0.0000000000000000e+00  1.0596950265624558e+00 0.0000000000000000e+00 0.0000000000000000e+00  1.0622659546652782e+00 0.0000000000000000e+00 0.0000000000000000e+00  1.0617449455434580e+00 0.0000000000000000e+00 0.0000000000000000e+00  1.0596781284040329e+00 0.0000000000000000e+00 0.0000000000000000e+00  1.0554479607575846e+00 0.0000000000000000e+00 0.0000000000000000e+00  1.0490178510011223e+00 0.0000000000000000e+00 0.0000000000000000e+00  1.0442222831284846e+00 0.0000000000000000e+00 0.0000000000000000e+00  1.0404601852468578e+00 0.0000000000000000e+00 0.0000000000000000e+00  1.0379501054106712e+00 0.0000000000000000e+00 0.0000000000000000e+00  1.0383831865694559e+00 0.0000000000000000e+00 0.0000000000000000e+00  1.0412325578751436e+00 0.0000000000000000e+00 0.0000000000000000e+00  1.0456570704673060e+00 0.0000000000000000e+00 0.0000000000000000e+00  1.0515337124422404e+00 0.0000000000000000e+00 0.0000000000000000e+00  1.0575165602734387e+00 0.0000000000000000e+00 0.0000000000000000e+00  1.0622747937757775e+00 0.0000000000000000e+00 0.0000000000000000e+00  1.0661202966041907e+00 0.0000000000000000e+00 0.0000000000000000e+00  1.0668362379786493e+00 0.0000000000000000e+00 0.0000000000000000e+00  1.0660866640917819e+00 0.0000000000000000e+00 0.0000000000000000e+00  1.0650858852742076e+00 0.0000000000000000e+00 0.0000000000000000e+00  1.0636872102753652e+00 0.0000000000000000e+00 0.0000000000000000e+00  1.0625631446148589e+00 0.0000000000000000e+00 0.0000000000000000e+00  1.0625616816186070e+00 0.0000000000000000e+00 0.0000000000000000e+00  1.0647885189667212e+00 0.0000000000000000e+00 0.0000000000000000e+00  1.0695653538064787e+00 0.0000000000000000e+00 0.0000000000000000e+00  1.0749147852966405e+00 0.0000000000000000e+00 0.0000000000000000e+00  1.0805740436301650e+00 0.0000000000000000e+00 0.0000000000000000e+00  1.0873873778190974e+00 0.0000000000000000e+00 0.0000000000000000e+00  1.0913269440654632e+00 0.0000000000000000e+00 0.0000000000000000e+00  1.0943301541141539e+00 0.0000000000000000e+00 0.0000000000000000e+00  1.0946984407678195e+00 0.0000000000000000e+00 0.0000000000000000e+00  1.0921465728229049e+00 0.0000000000000000e+00 0.0000000000000000e+00  1.0875038801572385e+00 0.0000000000000000e+00 0.0000000000000000e+00  1.0813578889316224e+00 0.0000000000000000e+00 0.0000000000000000e+00  1.0739542492397953e+00 0.0000000000000000e+00 0.0000000000000000e+00  1.0650088560862172e+00 0.0000000000000000e+00 0.0000000000000000e+00  1.0568650679074720e+00 0.0000000000000000e+00 0.0000000000000000e+00  1.0481880363048335e+00 0.0000000000000000e+00 0.0000000000000000e+00  1.0322115223917008e+00 0.0000000000000000e+00 0.0000000000000000e+00  1.0255470745363238e+00 0.0000000000000000e+00 0.0000000000000000e+00  1.0203226801667373e+00 0.0000000000000000e+00 0.0000000000000000e+00  1.0156871199378568e+00 0.0000000000000000e+00 0.0000000000000000e+00  1.0118944062219783e+00 0.0000000000000000e+00 0.0000000000000000e+00  1.0089130000517719e+00 0.0000000000000000e+00 0.0000000000000000e+00  1.0066429635765213e+00 0.0000000000000000e+00 0.0000000000000000e+00  1.0044263305880303e+00 0.0000000000000000e+00 0.0000000000000000e+00  1.0029110719401371e+00 0.0000000000000000e+00 0.0000000000000000e+00  1.0018507657814686e+00 0.0000000000000000e+00 0.0000000000000000e+00  1.0006853411004977e+00 0.0000000000000000e+00 0.0000000000000000e+00  1.0005851494173936e+00 0.0000000000000000e+00 0.0000000000000000e+00  9.9962660691067606e-01 0.0000000000000000e+00 0.0000000000000000e+00  9.9972424401015481e-01 0.0000000000000000e+00 0.0000000000000000e+00  9.9947687130594931e-01 0.0000000000000000e+00 0.0000000000000000e+00  1.0002890188919389e+00 0.0000000000000000e+00 0.0000000000000000e+00  1.0001608031092970e+00 0.0000000000000000e+00 0.0000000000000000e+00  9.9978483684309516e-01 0.0000000000000000e+00 0.0000000000000000e+00  1.0000001314759592e+00 0.0000000000000000e+00 0.0000000000000000e+00  1.0000001314759592e+00 0.0000000000000000e+00 0.0000000000000000e+00  1.0000001314759592e+00 0.0000000000000000e+00 0.0000000000000000e+00  1.0000001314759592e+00 0.0000000000000000e+00 0.0000000000000000e+00  1.0000001314759592e+00 0.0000000000000000e+00 0.0000000000000000e+00  1.0000001314759592e+00 0.0000000000000000e+00 0.0000000000000000e+00  1.0000001314759592e+00 0.0000000000000000e+00 0.0000000000000000e+00  1.0000001314759592e+00 0.0000000000000000e+00 0.0000000000000000e+00  1.0000001314759592e+00 0.0000000000000000e+00 0.0000000000000000e+00  1.0000001314759592e+00 0.0000000000000000e+00 0.0000000000000000e+00  1.0000001314759592e+00 0.0000000000000000e+00 0.0000000000000000e+00  1.0000001314759592e+00 0.0000000000000000e+00 0.0000000000000000e+00  1.0000001314759592e+00 0.0000000000000000e+00 0.0000000000000000e+00  1.0000001314759592e+00 0.0000000000000000e+00 0.0000000000000000e+00  1.0000001314759592e+00 0.0000000000000000e+00 0.0000000000000000e+00  1.0000001314759592e+00 0.0000000000000000e+00 0.0000000000000000e+00  1.0000001314759592e+00 0.0000000000000000e+00 0.0000000000000000e+00  1.0000001314759592e+00 0.0000000000000000e+00 0.0000000000000000e+00  1.0000001314759592e+00 0.0000000000000000e+00 0.0000000000000000e+00  1.0000001314759592e+00 0.0000000000000000e+00 0.0000000000000000e+00  1.0403710960307977e+00 -8.8570854991043158e-03 0.0000000000000000e+00  1.0377539878634219e+00 -1.7977084656432250e-02 0.0000000000000000e+00  1.0361537157360994e+00 -2.8122961990887617e-02 0.0000000000000000e+00  1.0313942440479225e+00 -3.8809712881701833e-02 0.0000000000000000e+00  1.0269357784764430e+00 -5.3392469458509735e-02 0.0000000000000000e+00  1.0315766097349235e+00 -5.6236408570558116e-02 0.0000000000000000e+00  1.0357316826411456e+00 -5.9092165890915482e-02 0.0000000000000000e+00  1.0409085469192916e+00 -6.1533769448482011e-02 0.0000000000000000e+00  1.0462648692398886e+00 -6.3746638706069114e-02 0.0000000000000000e+00  1.0521861523334273e+00 -6.5419562632325429e-02 0.0000000000000000e+00  1.0585990854948837e+00 -6.6654167123142122e-02 0.0000000000000000e+00  1.0653036858967728e+00 -6.7118542268564257e-02 0.0000000000000000e+00  1.0724055104518690e+00 -6.6923216545713482e-02 0.0000000000000000e+00  1.0793945124362909e+00 -6.5738795537504544e-02 0.0000000000000000e+00  1.0865096340676172e+00 -6.3856454812972252e-02 0.0000000000000000e+00  1.0933470119939985e+00 -6.1193357355761931e-02 0.0000000000000000e+00  1.1000126493591740e+00 -5.7402549826040559e-02 0.0000000000000000e+00  1.1059426718111767e+00 -5.2680859994159723e-02 0.0000000000000000e+00  1.1111742442592660e+00 -4.7407277781571999e-02 0.0000000000000000e+00  1.1155563468235694e+00 -4.1482603732428437e-02 0.0000000000000000e+00  1.1188685362684792e+00 -3.5098365338900331e-02 0.0000000000000000e+00  1.1210455019768697e+00 -2.8441994834100804e-02 0.0000000000000000e+00  1.1221526066360543e+00 -2.1855206417202996e-02 0.0000000000000000e+00  1.1220997387130744e+00 -1.5227104919318951e-02 0.0000000000000000e+00  1.1209800172579247e+00 -9.3341502138976021e-03 0.0000000000000000e+00  1.1188639730024725e+00 -3.6790634184760006e-03 0.0000000000000000e+00  1.1158078329099561e+00 1.1681003630932970e-03 0.0000000000000000e+00  1.1122320030535862e+00 4.9008867256494781e-03 0.0000000000000000e+00  1.1081140866180206e+00 7.5264840317437725e-03 0.0000000000000000e+00  1.1037784613645147e+00 9.0067545403649096e-03 0.0000000000000000e+00  1.0994760081273138e+00 9.4179233065255115e-03 0.0000000000000000e+00  1.0955341544763635e+00 8.5763928477189666e-03 0.0000000000000000e+00  1.0920379156893802e+00 6.7444718530994931e-03 0.0000000000000000e+00  1.0894275932965196e+00 4.0977868413664895e-03 0.0000000000000000e+00  1.0878713603319730e+00 6.8164778886170075e-04 0.0000000000000000e+00  1.0874340935886377e+00 -3.06360