<?xml version="1.0"?>
<VTKFile type="UnstructuredGrid"  version="0.1"  >
<UnstructuredGrid>
<Piece  NumberOfPoints="10199" NumberOfCells="20110">
<Points>
<DataArray  type="Float64"  NumberOfComponents="3"  format="ascii">0 -5 0  8 -5 0  30 -5 0  40 -5 0  40 5 0  30 5 0  8 5 0  0 5 0  8 -2.5 0  15 -2.5 0  30 -2.5 0  30 2.5 0  15 2.5 0  8 2.5 0  10 0.5 0  10 -0.5 0  0 0 0  0.4210526315780956 -5 0  0.8421052631563433 -5 0  1.263157894734281 -5 0  1.684210526311999 -5 0  2.105263157889717 -5 0  2.526315789467435 -5 0  2.947368421045153 -5 0  3.368421052622872 -5 0  3.78947368420059 -5 0  4.210526315779479 -5 0  4.631578947359537 -5 0  5.052631578939595 -5 0  5.473684210519653 -5 0  5.89473684209971 -5 0  6.315789473679768 -5 0  6.736842105259826 -5 0  7.157894736839884 -5 0  7.578947368419942 -5 0  8.407407407405314 -5 0  8.814814814810628 -5 0  9.222222222215942 -5 0  9.629629629621256 -5 0  10.03703703702657 -5 0  10.44444444443188 -5 0  10.8518518518372 -5 0  11.25925925924251 -5 0  11.66666666664783 -5 0  12.07407407405314 -5 0  12.48148148145846 -5 0  12.88888888886377 -5 0  13.29629629626908 -5 0  13.7037037036744 -5 0  14.11111111107971 -5 0  14.51851851848502 -5 0  14.92592592589034 -5 0  15.33333333329565 -5 0  15.74074074070096 -5 0  16.14814814810754 -5 0  16.55555555551614 -5 0  16.96296296292474 -5 0  17.37037037033335 -5 0  17.77777777774195 -5 0  18.18518518515056 -5 0  18.59259259255916 -5 0  18.99999999996776 -5 0  19.40740740737636 -5 0  19.81481481478497 -5 0  20.22222222219357 -5 0  20.62962962960217 -5 0  21.03703703701077 -5 0  21.44444444441937 -5 0  21.85185185182797 -5 0  22.25925925923657 -5 0  22.66666666664518 -5 0  23.07407407405378 -5 0  23.48148148146238 -5 0  23.88888888887098 -5 0  24.29629629627958 -5 0  24.70370370368818 -5 0  25.11111111109678 -5 0  25.51851851850539 -5 0  25.92592592591399 -5 0  26.33333333332259 -5 0  26.74074074073119 -5 0  27.14814814813979 -5 0  27.55555555554839 -5 0  27.96296296295699 -5 0  28.3703703703656 -5 0  28.7777777777742 -5 0  29.1851851851828 -5 0  29.5925925925914 -5 0  30.41666666667852 -5 0  30.83333333335704 -5 0  31.25000000003556 -5 0  31.66666666671408 -5 0  32.08333333338936 -5 0  32.50000000005308 -5 0  32.9166666667168 -5 0  33.33333333338052 -5 0  33.75000000004424 -5 0  34.16666666670795 -5 0  34.58333333337167 -5 0  35.00000000003539 -5 0  35.41666666669911 -5 0  35.83333333336282 -5 0  36.25000000002654 -5 0  36.66666666669026 -5 0  37.08333333335398 -5 0  37.50000000001769 -5 0  37.91666666668141 -5 0  38.33333333334513 -5 0  38.75000000000885 -5 0  39.16666666667257 -5 0  39.58333333333628 -5 0  40 -4.583333333332821 0  40 -4.166666666665642 0  40 -3.74999999999855 0  40 -3.333333333333135 0  40 -2.916666666667806 0  40 -2.500000000002478 0  40 -2.083333333337148 0  40 -1.666666666671818 0  40 -1.250000000006488 0  40 -0.8333333333405228 0  40 -0.4166666666733416 0  40 -6.163070054299169e-12 0  40 0.4166666666610173 0  40 0.8333333333281976 0  40 1.249999999995378 0  40 1.666666666662558 0  40 2.083333333329739 0  40 2.499999999996919 0  40 2.916666666664099 0  40 3.33333333333128 0  40 3.74999999999846 0  40 4.166666666665641 0  40 4.583333333332821 0  39.58333333333628 5 0  39.16666666667256 5 0  38.75000000000885 5 0  38.33333333334513 5 0  37.91666666668141 5 0  37.50000000001769 5 0  37.08333333335398 5 0  36.66666666669025 5 0  36.25000000002654 5 0  35.83333333336282 5 0  35.41666666669911 5 0  35.00000000003539 5 0  34.58333333337167 5 0  34.16666666670795 5 0  33.75000000004424 5 0  33.33333333338052 5 0  32.9166666667168 5 0  32.50000000005308 5 0  32.08333333338936 5 0  31.66666666671408 5 0  31.25000000003556 5 0  30.83333333335704 5 0  30.41666666667852 5 0  29.59259259259259 5 0  29.18518518518519 5 0  28.77777777777778 5 0  28.37037037037037 5 0  27.96296296296296 5 0  27.55555555555556 5 0  27.14814814814815 5 0  26.74074074074074 5 0  26.33333333333333 5 0  25.92592592592593 5 0  25.51851851851852 5 0  25.11111111111111 5 0  24.7037037037037 5 0  24.2962962962963 5 0  23.88888888888889 5 0  23.48148148148148 5 0  23.07407407407408 5 0  22.66666666666667 5 0  22.25925925925926 5 0  21.85185185185185 5 0  21.44444444444445 5 0  21.03703703703704 5 0  20.62962962962963 5 0  20.22222222222222 5 0  19.81481481481482 5 0  19.40740740740741 5 0  19 5 0  18.5925925925926 5 0  18.18518518518519 5 0  17.77777777777778 5 0  17.37037037037037 5 0  16.96296296296296 5 0  16.55555555555556 5 0  16.14814814814815 5 0  15.74074074074074 5 0  15.33333333333333 5 0  14.92592592592593 5 0  14.51851851851852 5 0  14.11111111111111 5 0  13.70370370370371 5 0  13.2962962962963 5 0  12.88888888888889 5 0  12.48148148148148 5 0  12.07407407407408 5 0  11.66666666666667 5 0  11.25925925925926 5 0  10.85185185185185 5 0  10.44444444444445 5 0  10.03703703703704 5 0  9.629629629629633 5 0  9.222222222222221 5 0  8.814814814814817 5 0  8.407407407407408 5 0  7.5789473684193 5 0  7.157894736838599 5 0  6.73684210526082 5 0  6.315789473684795 5 0  5.894736842108769 5 0  5.473684210532742 5 0  5.052631578956715 5 0  4.631578947380689 5 0  4.210526315804662 5 0  3.789473684226299 5 0  3.368421052645599 5 0  2.947368421064898 5 0  2.526315789484198 5 0  2.105263157903499 5 0  1.6842105263228 5 0  1.2631578947421 5 0  0.8421052631613994 5 0  0.4210526315806993 5 0  0 4.545454545454545 0  0 4.09090909090909 0  0 3.636363636363634 0  0 3.18181818181818 0  0 2.727272727272726 0  0 2.272727272727271 0  0 1.818181818181817 0  0 1.363636363636363 0  0 0.9090909090909092 0  0 0.454545454545455 0  0 -0.4545454545450807 0  0 -0.9090909090895867 0  0 -1.363636363633713 0  0 -1.818181818177841 0  0 -2.272727272723127 0  0 -2.727272727269273 0  0 -3.181818181815419 0  0 -3.636363636361564 0  0 -4.090909090907709 0  0 -4.545454545453855 0  8 -4.499999999999999 0  8 -3.999999999999999 0  8 -3.499999999999999 0  8 -3 0  8.137254901963859 -2.5 0  8.274509803926303 -2.5 0  8.411764705886863 -2.5 0  8.549019607849138 -2.5 0  8.686274509809513 -2.5 0  8.82352941176989 -2.5 0  8.960784313730265 -2.5 0  9.098039215690642 -2.5 0  9.235294117651017 -2.5 0  9.372549019611395 -2.5 0  9.50980392157177 -2.5 0  9.647058823532147 -2.5 0  9.784313725492522 -2.5 0  9.921568627452897 -2.5 0  10.05882352941327 -2.5 0  10.19607843137365 -2.5 0  10.33333333333402 -2.5 0  10.4705882352944 -2.5 0  10.60784313725478 -2.5 0  10.74509803921515 -2.5 0  10.88235294117553 -2.5 0  11.0196078431359 -2.5 0  11.15686274509628 -2.5 0  11.29411764705665 -2.5 0  11.43137254901703 -2.5 0  11.56862745097915 -2.5 0  11.70588235294301 -2.5 0  11.84313725490686 -2.5 0  11.98039215687072 -2.5 0  12.11764705883209 -2.5 0  12.25490196079247 -2.5 0  12.39215686275285 -2.5 0  12.52941176471322 -2.5 0  12.6666666666736 -2.5 0  12.80392156863397 -2.5 0  12.94117647059435 -2.5 0  13.07843137255473 -2.5 0  13.2156862745151 -2.5 0  13.35294117647548 -2.5 0  13.49019607843586 -2.5 0  13.62745098039623 -2.5 0  13.76470588235661 -2.5 0  13.90196078431699 -2.5 0  14.03921568627736 -2.5 0  14.17647058823774 -2.5 0  14.31372549019812 -2.5 0  14.45098039215849 -2.5 0  14.58823529411887 -2.5 0  14.72549019607925 -2.5 0  14.86274509803962 -2.5 0  15.20270270270254 -2.5 0  15.40540540540509 -2.5 0  15.60810810810763 -2.5 0  15.81081081081017 -2.5 0  16.01351351351227 -2.5 0  16.21621621621265 -2.5 0  16.41891891891279 -2.5 0  16.62162162161294 -2.5 0  16.82432432431308 -2.5 0  17.02702702701322 -2.5 0  17.22972972971337 -2.5 0  17.43243243241351 -2.5 0  17.63513513511365 -2.5 0  17.83783783781379 -2.5 0  18.04054054051394 -2.5 0  18.24324324321408 -2.5 0  18.44594594591422 -2.5 0  18.64864864861436 -2.5 0  18.85135135131451 -2.5 0  19.05405405401465 -2.5 0  19.25675675671479 -2.5 0  19.45945945941494 -2.5 0  19.66216216211508 -2.5 0  19.86486486481522 -2.5 0  20.06756756751536 -2.5 0  20.27027027021551 -2.5 0  20.47297297291565 -2.5 0  20.6756756756158 -2.5 0  20.87837837831594 -2.5 0  21.08108108101608 -2.5 0  21.28378378371622 -2.5 0  21.48648648641637 -2.5 0  21.68918918911651 -2.5 0  21.89189189181666 -2.5 0  22.0945945945168 -2.5 0  22.29729729721694 -2.5 0  22.49999999991778 -2.5 0  22.70270270262203 -2.5 0  22.90540540532697 -2.5 0  23.10810810803191 -2.5 0  23.31081081073686 -2.5 0  23.5135135134418 -2.5 0  23.71621621614674 -2.5 0  23.91891891885169 -2.5 0  24.12162162155663 -2.5 0  24.32432432426158 -2.5 0  24.52702702696652 -2.5 0  24.72972972967146 -2.5 0  24.93243243237641 -2.5 0  25.13513513508135 -2.5 0  25.3378378377863 -2.5 0  25.54054054049124 -2.5 0  25.74324324319618 -2.5 0  25.94594594590112 -2.5 0  26.14864864860607 -2.5 0  26.35135135131101 -2.5 0  26.55405405401596 -2.5 0  26.7567567567209 -2.5 0  26.95945945942584 -2.5 0  27.16216216213079 -2.5 0  27.36486486483573 -2.5 0  27.56756756754068 -2.5 0  27.77027027024562 -2.5 0  27.97297297295056 -2.5 0  28.1756756756555 -2.5 0  28.37837837836045 -2.5 0  28.5810810810654 -2.5 0  28.78378378377034 -2.5 0  28.98648648647528 -2.5 0  29.18918918918023 -2.5 0  29.39189189188517 -2.5 0  29.59459459459011 -2.5 0  29.79729729729506 -2.5 0  30 -3.000000000000001 0  30 -3.500000000000001 0  30 -4.000000000000001 0  30 -4.5 0  8 4.499999999999999 0  8 3.999999999999999 0  8 3.499999999999999 0  8 3 0  8.137254901963859 2.5 0  8.274509803926303 2.5 0  8.411764705886863 2.5 0  8.549019607849138 2.5 0  8.686274509809513 2.5 0  8.82352941176989 2.5 0  8.960784313730265 2.5 0  9.098039215690642 2.5 0  9.235294117651017 2.5 0  9.372549019611395 2.5 0  9.50980392157177 2.5 0  9.647058823532147 2.5 0  9.784313725492522 2.5 0  9.921568627452897 2.5 0  10.05882352941327 2.5 0  10.19607843137365 2.5 0  10.33333333333402 2.5 0  10.4705882352944 2.5 0  10.60784313725478 2.5 0  10.74509803921515 2.5 0  10.88235294117553 2.5 0  11.0196078431359 2.5 0  11.15686274509628 2.5 0  11.29411764705665 2.5 0  11.43137254901703 2.5 0  11.56862745097915 2.5 0  11.70588235294301 2.5 0  11.84313725490686 2.5 0  11.98039215687072 2.5 0  12.11764705883209 2.5 0  12.25490196079247 2.5 0  1
[...]
<PointData  Vectors="f_17"> 
<DataArray  type="Float64"  Name="f_17"  NumberOfComponents="3" format="ascii">1.0000001318131992e+00 0.0000000000000000e+00 0.0000000000000000e+00  1.0417739171312652e+00 0.0000000000000000e+00 0.0000000000000000e+00  1.0628704422812945e+00 0.0000000000000000e+00 0.0000000000000000e+00  1.0924407138609049e+00 0.0000000000000000e+00 0.0000000000000000e+00  1.0752143555522300e+00 0.0000000000000000e+00 0.0000000000000000e+00  1.0512565336122706e+00 0.0000000000000000e+00 0.0000000000000000e+00  1.0391581311085714e+00 0.0000000000000000e+00 0.0000000000000000e+00  1.0000001318131992e+00 0.0000000000000000e+00 0.0000000000000000e+00  1.0253299048570230e+00 -5.0939881583949465e-02 0.0000000000000000e+00  1.1235287044348587e+00 6.0352955283540517e-02 0.0000000000000000e+00  1.1485789690099160e+00 -5.2055501228239001e-02 0.0000000000000000e+00  9.9769704678370852e-01 -4.5533106842389828e-02 0.0000000000000000e+00  9.8820716664910313e-01 3.5181168263617559e-03 0.0000000000000000e+00  1.0174922404708988e+00 5.0750287495720477e-02 0.0000000000000000e+00  0.0000000000000000e+00 0.0000000000000000e+00 0.0000000000000000e+00  0.0000000000000000e+00 0.0000000000000000e+00 0.0000000000000000e+00  1.0000001318131992e+00 0.0000000000000000e+00 0.0000000000000000e+00  9.9931245070288677e-01 0.0000000000000000e+00 0.0000000000000000e+00  9.9882580130268706e-01 0.0000000000000000e+00 0.0000000000000000e+00  1.0009593530033742e+00 0.0000000000000000e+00 0.0000000000000000e+00  1.0008977209009171e+00 0.0000000000000000e+00 0.0000000000000000e+00  1.0020056358234057e+00 0.0000000000000000e+00 0.0000000000000000e+00  1.0024575654385055e+00 0.0000000000000000e+00 0.0000000000000000e+00  1.0028635179733911e+00 0.0000000000000000e+00 0.0000000000000000e+00  1.0037601934892109e+00 0.0000000000000000e+00 0.0000000000000000e+00  1.0050383496151840e+00 0.0000000000000000e+00 0.0000000000000000e+00  1.0061668154340677e+00 0.0000000000000000e+00 0.0000000000000000e+00  1.0076420941640927e+00 0.0000000000000000e+00 0.0000000000000000e+00  1.0098321003975743e+00 0.0000000000000000e+00 0.0000000000000000e+00  1.0121504805265185e+00 0.0000000000000000e+00 0.0000000000000000e+00  1.0160560112663102e+00 0.0000000000000000e+00 0.0000000000000000e+00  1.0177396712975908e+00 0.0000000000000000e+00 0.0000000000000000e+00  1.0222349266855240e+00 0.0000000000000000e+00 0.0000000000000000e+00  1.0288720411406502e+00 0.0000000000000000e+00 0.0000000000000000e+00  1.0341316915271381e+00 0.0000000000000000e+00 0.0000000000000000e+00  1.0493174912473933e+00 0.0000000000000000e+00 0.0000000000000000e+00  1.0571092090444842e+00 0.0000000000000000e+00 0.0000000000000000e+00  1.0640815094874150e+00 0.0000000000000000e+00 0.0000000000000000e+00  1.0712092458513445e+00 0.0000000000000000e+00 0.0000000000000000e+00  1.0766252635729627e+00 0.0000000000000000e+00 0.0000000000000000e+00  1.0811106353817517e+00 0.0000000000000000e+00 0.0000000000000000e+00  1.0851107717583508e+00 0.0000000000000000e+00 0.0000000000000000e+00  1.0867024726324468e+00 0.0000000000000000e+00 0.0000000000000000e+00  1.0877968310646970e+00 0.0000000000000000e+00 0.0000000000000000e+00  1.0879182407898482e+00 0.0000000000000000e+00 0.0000000000000000e+00  1.0879877344676385e+00 0.0000000000000000e+00 0.0000000000000000e+00  1.0867671206450216e+00 0.0000000000000000e+00 0.0000000000000000e+00  1.0861928594014054e+00 0.0000000000000000e+00 0.0000000000000000e+00  1.0848540211088089e+00 0.0000000000000000e+00 0.0000000000000000e+00  1.0823362607008786e+00 0.0000000000000000e+00 0.0000000000000000e+00  1.0789139731714248e+00 0.0000000000000000e+00 0.0000000000000000e+00  1.0739770945800395e+00 0.0000000000000000e+00 0.0000000000000000e+00  1.0678801283075710e+00 0.0000000000000000e+00 0.0000000000000000e+00  1.0606520950030076e+00 0.0000000000000000e+00 0.0000000000000000e+00  1.0531590124060974e+00 0.0000000000000000e+00 0.0000000000000000e+00  1.0475041087783965e+00 0.0000000000000000e+00 0.0000000000000000e+00  1.0439366050106913e+00 0.0000000000000000e+00 0.0000000000000000e+00  1.0413300355655624e+00 0.0000000000000000e+00 0.0000000000000000e+00  1.0420945183908294e+00 0.0000000000000000e+00 0.0000000000000000e+00  1.0449697994251441e+00 0.0000000000000000e+00 0.0000000000000000e+00  1.0493528847831397e+00 0.0000000000000000e+00 0.0000000000000000e+00  1.0548086708486064e+00 0.0000000000000000e+00 0.0000000000000000e+00  1.0592142031057492e+00 0.0000000000000000e+00 0.0000000000000000e+00  1.0620201693952194e+00 0.0000000000000000e+00 0.0000000000000000e+00  1.0629289261364103e+00 0.0000000000000000e+00 0.0000000000000000e+00  1.0605682982347251e+00 0.0000000000000000e+00 0.0000000000000000e+00  1.0562459648603866e+00 0.0000000000000000e+00 0.0000000000000000e+00  1.0523225421308502e+00 0.0000000000000000e+00 0.0000000000000000e+00  1.0474731351797044e+00 0.0000000000000000e+00 0.0000000000000000e+00  1.0435547351502661e+00 0.0000000000000000e+00 0.0000000000000000e+00  1.0425461301520509e+00 0.0000000000000000e+00 0.0000000000000000e+00  1.0428583464293681e+00 0.0000000000000000e+00 0.0000000000000000e+00  1.0451196475037909e+00 0.0000000000000000e+00 0.0000000000000000e+00  1.0504970699182730e+00 0.0000000000000000e+00 0.0000000000000000e+00  1.0554906172108987e+00 0.0000000000000000e+00 0.0000000000000000e+00  1.0598763956202284e+00 0.0000000000000000e+00 0.0000000000000000e+00  1.0636037078988421e+00 0.0000000000000000e+00 0.0000000000000000e+00  1.0644990498716611e+00 0.0000000000000000e+00 0.0000000000000000e+00  1.0631144880347514e+00 0.0000000000000000e+00 0.0000000000000000e+00  1.0605399457585465e+00 0.0000000000000000e+00 0.0000000000000000e+00  1.0561406599989440e+00 0.0000000000000000e+00 0.0000000000000000e+00  1.0515879233264385e+00 0.0000000000000000e+00 0.0000000000000000e+00  1.0505309935913143e+00 0.0000000000000000e+00 0.0000000000000000e+00  1.0491849629062817e+00 0.0000000000000000e+00 0.0000000000000000e+00  1.0481571356511279e+00 0.0000000000000000e+00 0.0000000000000000e+00  1.0500911518108755e+00 0.0000000000000000e+00 0.0000000000000000e+00  1.0547342926440588e+00 0.0000000000000000e+00 0.0000000000000000e+00  1.0589810216697708e+00 0.0000000000000000e+00 0.0000000000000000e+00  1.0651454173564006e+00 0.0000000000000000e+00 0.0000000000000000e+00  1.0646183759025916e+00 0.0000000000000000e+00 0.0000000000000000e+00  1.0620775472039343e+00 0.0000000000000000e+00 0.0000000000000000e+00  1.0591448088457298e+00 0.0000000000000000e+00 0.0000000000000000e+00  1.0555409638659410e+00 0.0000000000000000e+00 0.0000000000000000e+00  1.0521963315107892e+00 0.0000000000000000e+00 0.0000000000000000e+00  1.0502821121966950e+00 0.0000000000000000e+00 0.0000000000000000e+00  1.0506784264038485e+00 0.0000000000000000e+00 0.0000000000000000e+00  1.0530130559748898e+00 0.0000000000000000e+00 0.0000000000000000e+00  1.0563620179513544e+00 0.0000000000000000e+00 0.0000000000000000e+00  1.0609145655647916e+00 0.0000000000000000e+00 0.0000000000000000e+00  1.0648825052183244e+00 0.0000000000000000e+00 0.0000000000000000e+00  1.0674068676487924e+00 0.0000000000000000e+00 0.0000000000000000e+00  1.0687748090846960e+00 0.0000000000000000e+00 0.0000000000000000e+00  1.0682969928217441e+00 0.0000000000000000e+00 0.0000000000000000e+00  1.0670194161330941e+00 0.0000000000000000e+00 0.0000000000000000e+00  1.0643532595831529e+00 0.0000000000000000e+00 0.0000000000000000e+00  1.0626937925087059e+00 0.0000000000000000e+00 0.0000000000000000e+00  1.0622279178436969e+00 0.0000000000000000e+00 0.0000000000000000e+00  1.0645387691816739e+00 0.0000000000000000e+00 0.0000000000000000e+00  1.0687904992429709e+00 0.0000000000000000e+00 0.0000000000000000e+00  1.0760463749712534e+00 0.0000000000000000e+00 0.0000000000000000e+00  1.0837600028341365e+00 0.0000000000000000e+00 0.0000000000000000e+00  1.0937703525551636e+00 -8.2779372301828285e-03 0.0000000000000000e+00  1.0970665446893890e+00 -1.8313643799242725e-02 0.0000000000000000e+00  1.1030246966415622e+00 -3.2073638416498199e-02 0.0000000000000000e+00  1.1115388246742217e+00 -5.2795616068902006e-02 0.0000000000000000e+00  1.1269650835578993e+00 -8.6787910678954666e-02 0.0000000000000000e+00  1.1402318803833063e+00 -1.3369114381394381e-01 0.0000000000000000e+00  1.1274963836348200e+00 -1.9165339981765034e-01 0.0000000000000000e+00  1.0651608956403389e+00 -2.4142925753872832e-01 0.0000000000000000e+00  9.5407451043029934e-01 -2.6485838296667841e-01 0.0000000000000000e+00  8.3442224924637565e-01 -2.5441703562943557e-01 0.0000000000000000e+00  7.5014478490701086e-01 -2.3043386313447656e-01 0.0000000000000000e+00  7.2486645109030245e-01 -2.0768120283890890e-01 0.0000000000000000e+00  7.5010405117367063e-01 -1.9059501686381430e-01 0.0000000000000000e+00  8.1137504087010603e-01 -1.6841632125059841e-01 0.0000000000000000e+00  8.8602757809566923e-01 -1.4280393550805143e-01 0.0000000000000000e+00  9.5482633712070708e-01 -1.0879438191046424e-01 0.0000000000000000e+00  1.0045398668739722e+00 -7.6897136877742953e-02 0.0000000000000000e+00  1.0368295770377496e+00 -4.8198262878304275e-02 0.0000000000000000e+00  1.0553660653684847e+00 -2.7620128708831591e-02 0.0000000000000000e+00  1.0665680151302857e+00 -1.4881950332621510e-02 0.0000000000000000e+00  1.0719984195131662e+00 -7.5413564356163268e-03 0.0000000000000000e+00  1.0750026023878170e+00 -3.5768710145566950e-03 0.0000000000000000e+00  1.0755528982670914e+00 -1.4027246412559949e-03 0.0000000000000000e+00  1.0765706421855052e+00 0.0000000000000000e+00 0.0000000000000000e+00  1.0782062183418872e+00 0.0000000000000000e+00 0.0000000000000000e+00  1.0791283977360979e+00 0.0000000000000000e+00 0.0000000000000000e+00  1.0788532707090448e+00 0.0000000000000000e+00 0.0000000000000000e+00  1.0761246676206788e+00 0.0000000000000000e+00 0.0000000000000000e+00  1.0722071998843397e+00 0.0000000000000000e+00 0.0000000000000000e+00  1.0674179760699991e+00 0.0000000000000000e+00 0.0000000000000000e+00  1.0625904118933402e+00 0.0000000000000000e+00 0.0000000000000000e+00  1.0580583147392615e+00 0.0000000000000000e+00 0.0000000000000000e+00  1.0554690793136436e+00 0.0000000000000000e+00 0.0000000000000000e+00  1.0550157405660023e+00 0.0000000000000000e+00 0.0000000000000000e+00  1.0563096085787667e+00 0.0000000000000000e+00 0.0000000000000000e+00  1.0591307424876431e+00 0.0000000000000000e+00 0.0000000000000000e+00  1.0629823150054394e+00 0.0000000000000000e+00 0.0000000000000000e+00  1.0655358742584775e+00 0.0000000000000000e+00 0.0000000000000000e+00  1.0675494784570541e+00 0.0000000000000000e+00 0.0000000000000000e+00  1.0663955672626075e+00 0.0000000000000000e+00 0.0000000000000000e+00  1.0639258072557536e+00 0.0000000000000000e+00 0.0000000000000000e+00  1.0599142783572466e+00 0.0000000000000000e+00 0.0000000000000000e+00  1.0559566866826311e+00 0.0000000000000000e+00 0.0000000000000000e+00  1.0523822152785947e+00 0.0000000000000000e+00 0.0000000000000000e+00  1.0497023571962376e+00 0.0000000000000000e+00 0.0000000000000000e+00  1.0495746541995987e+00 0.0000000000000000e+00 0.0000000000000000e+00  1.0536611363733133e+00 0.0000000000000000e+00 0.0000000000000000e+00  1.0577329036042036e+00 0.0000000000000000e+00 0.0000000000000000e+00  1.0604049238032904e+00 0.0000000000000000e+00 0.0000000000000000e+00  1.0634432880365530e+00 0.0000000000000000e+00 0.0000000000000000e+00  1.0654449925962890e+00 0.0000000000000000e+00 0.0000000000000000e+00  1.0640745939258782e+00 0.0000000000000000e+00 0.0000000000000000e+00  1.0589957776540775e+00 0.0000000000000000e+00 0.0000000000000000e+00  1.0552464335703355e+00 0.0000000000000000e+00 0.0000000000000000e+00  1.0512606061242002e+00 0.0000000000000000e+00 0.0000000000000000e+00  1.0473719168879463e+00 0.0000000000000000e+00 0.0000000000000000e+00  1.0458378578506573e+00 0.0000000000000000e+00 0.0000000000000000e+00  1.0463645297233115e+00 0.0000000000000000e+00 0.0000000000000000e+00  1.0481349737505550e+00 0.0000000000000000e+00 0.0000000000000000e+00  1.0520737077933258e+00 0.0000000000000000e+00 0.0000000000000000e+00  1.0564676151769281e+00 0.0000000000000000e+00 0.0000000000000000e+00  1.0594701067306511e+00 0.0000000000000000e+00 0.0000000000000000e+00  1.0621369497777768e+00 0.0000000000000000e+00 0.0000000000000000e+00  1.0624577157049384e+00 0.0000000000000000e+00 0.0000000000000000e+00  1.0594975147459333e+00 0.0000000000000000e+00 0.0000000000000000e+00  1.0554818527559187e+00 0.0000000000000000e+00 0.0000000000000000e+00  1.0501996608355793e+00 0.0000000000000000e+00 0.0000000000000000e+00  1.0438635378122747e+00 0.0000000000000000e+00 0.0000000000000000e+00  1.0402966657870885e+00 0.0000000000000000e+00 0.0000000000000000e+00  1.0385803948679755e+00 0.0000000000000000e+00 0.0000000000000000e+00  1.0385548320496276e+00 0.0000000000000000e+00 0.0000000000000000e+00  1.0413489393641966e+00 0.0000000000000000e+00 0.0000000000000000e+00  1.0460568609915373e+00 0.0000000000000000e+00 0.0000000000000000e+00  1.0514246033319805e+00 0.0000000000000000e+00 0.0000000000000000e+00  1.0571883023634785e+00 0.0000000000000000e+00 0.0000000000000000e+00  1.0619576583049930e+00 0.0000000000000000e+00 0.0000000000000000e+00  1.0646910391359654e+00 0.0000000000000000e+00 0.0000000000000000e+00  1.0660719465527912e+00 0.0000000000000000e+00 0.0000000000000000e+00  1.0644620746058346e+00 0.0000000000000000e+00 0.0000000000000000e+00  1.0619990201290002e+00 0.0000000000000000e+00 0.0000000000000000e+00  1.0602304405618794e+00 0.0000000000000000e+00 0.0000000000000000e+00  1.0591011994786104e+00 0.0000000000000000e+00 0.0000000000000000e+00  1.0590989833061371e+00 0.0000000000000000e+00 0.0000000000000000e+00  1.0607730280967020e+00 0.0000000000000000e+00 0.0000000000000000e+00  1.0648192553322609e+00 0.0000000000000000e+00 0.0000000000000000e+00  1.0712285413989202e+00 0.0000000000000000e+00 0.0000000000000000e+00  1.0777907850958039e+00 0.0000000000000000e+00 0.0000000000000000e+00  1.0840820575032393e+00 0.0000000000000000e+00 0.0000000000000000e+00  1.0909822015822530e+00 0.0000000000000000e+00 0.0000000000000000e+00  1.0945502682892216e+00 0.0000000000000000e+00 0.0000000000000000e+00  1.0969000753764200e+00 0.0000000000000000e+00 0.0000000000000000e+00  1.0964774991965429e+00 0.0000000000000000e+00 0.0000000000000000e+00  1.0931536444137662e+00 0.0000000000000000e+00 0.0000000000000000e+00  1.0878422844911577e+00 0.0000000000000000e+00 0.0000000000000000e+00  1.0811746124566075e+00 0.0000000000000000e+00 0.0000000000000000e+00  1.0734164262001311e+00 0.0000000000000000e+00 0.0000000000000000e+00  1.0642587531971375e+00 0.0000000000000000e+00 0.0000000000000000e+00  1.0560126389875566e+00 0.0000000000000000e+00 0.0000000000000000e+00  1.0473106174256843e+00 0.0000000000000000e+00 0.0000000000000000e+00  1.0314042548763360e+00 0.0000000000000000e+00 0.0000000000000000e+00  1.0247914854730129e+00 0.0000000000000000e+00 0.0000000000000000e+00  1.0196145599470967e+00 0.0000000000000000e+00 0.0000000000000000e+00  1.0150194408248387e+00 0.0000000000000000e+00 0.0000000000000000e+00  1.0112662056006385e+00 0.0000000000000000e+00 0.0000000000000000e+00  1.0083215375535497e+00 0.0000000000000000e+00 0.0000000000000000e+00  1.0060956752325996e+00 0.0000000000000000e+00 0.0000000000000000e+00  1.0039300054634694e+00 0.0000000000000000e+00 0.0000000000000000e+00  1.0024829890105615e+00 0.0000000000000000e+00 0.0000000000000000e+00  1.0014982670017247e+00 0.0000000000000000e+00 0.0000000000000000e+00  1.0004133405913149e+00 0.0000000000000000e+00 0.0000000000000000e+00  1.0003932734155276e+00 0.0000000000000000e+00 0.0000000000000000e+00  9.9950986403074327e-01 0.0000000000000000e+00 0.0000000000000000e+00  9.9966476283676486e-01 0.0000000000000000e+00 0.0000000000000000e+00  9.9945323146582032e-01 0.0000000000000000e+00 0.0000000000000000e+00  1.0002903936320715e+00 0.0000000000000000e+00 0.0000000000000000e+00  1.0001661385280383e+00 0.0000000000000000e+00 0.0000000000000000e+00  9.9978604625223433e-01 0.0000000000000000e+00 0.0000000000000000e+00  1.0000001318131992e+00 0.0000000000000000e+00 0.0000000000000000e+00  1.0000001318131992e+00 0.0000000000000000e+00 0.0000000000000000e+00  1.0000001318131992e+00 0.0000000000000000e+00 0.0000000000000000e+00  1.0000001318131992e+00 0.0000000000000000e+00 0.0000000000000000e+00  1.0000001318131992e+00 0.0000000000000000e+00 0.0000000000000000e+00  1.0000001318131992e+00 0.0000000000000000e+00 0.0000000000000000e+00  1.0000001318131992e+00 0.0000000000000000e+00 0.0000000000000000e+00  1.0000001318131992e+00 0.0000000000000000e+00 0.0000000000000000e+00  1.0000001318131992e+00 0.0000000000000000e+00 0.0000000000000000e+00  1.0000001318131992e+00 0.0000000000000000e+00 0.0000000000000000e+00  1.0000001318131992e+00 0.0000000000000000e+00 0.0000000000000000e+00  1.0000001318131992e+00 0.0000000000000000e+00 0.0000000000000000e+00  1.0000001318131992e+00 0.0000000000000000e+00 0.0000000000000000e+00  1.0000001318131992e+00 0.0000000000000000e+00 0.0000000000000000e+00  1.0000001318131992e+00 0.0000000000000000e+00 0.0000000000000000e+00  1.0000001318131992e+00 0.0000000000000000e+00 0.0000000000000000e+00  1.0000001318131992e+00 0.0000000000000000e+00 0.0000000000000000e+00  1.0000001318131992e+00 0.0000000000000000e+00 0.0000000000000000e+00  1.0000001318131992e+00 0.0000000000000000e+00 0.0000000000000000e+00  1.0000001318131992e+00 0.0000000000000000e+00 0.0000000000000000e+00  1.0412895908693387e+00 -8.9231704650873916e-03 0.0000000000000000e+00  1.0387406275572115e+00 -1.8130557279137406e-02 0.0000000000000000e+00  1.0372356521448820e+00 -2.8405364670469519e-02 0.0000000000000000e+00  1.0325752482160138e+00 -3.9308901080457925e-02 0.0000000000000000e+00  1.0282469432121464e+00 -5.4228774208597771e-02 0.0000000000000000e+00  1.0329856663391415e+00 -5.7089216583476141e-02 0.0000000000000000e+00  1.0372529758647102e+00 -5.9951540009114200e-02 0.0000000000000000e+00  1.0425528628884810e+00 -6.2391003128121555e-02 0.0000000000000000e+00  1.0480463363285561e+00 -6.4587004783237548e-02 0.0000000000000000e+00  1.0541189493710350e+00 -6.6230840140760763e-02 0.0000000000000000e+00  1.0606961261129320e+00 -6.7414832394335364e-02 0.0000000000000000e+00  1.0675878322602612e+00 -6.7805961702398901e-02 0.0000000000000000e+00  1.0748878371016664e+00 -6.7513242207969990e-02 0.0000000000000000e+00  1.0821006604872037e+00 -6.6200077031295421e-02 0.0000000000000000e+00  1.0894554818228770e+00 -6.4146618254338317e-02 0.0000000000000000e+00  1.0965596908919699e+00 -6.1258806583420457e-02 0.0000000000000000e+00  1.1035003305974809e+00 -5.7193120690597316e-02 0.0000000000000000e+00  1.1097172175449961e+00 -5.2132799168095635e-02 0.0000000000000000e+00  1.1152463468632112e+00 -4.6431799778096687e-02 0.0000000000000000e+00  1.1199227421467435e+00 -3.9990500698828715e-02 0.0000000000000000e+00  1.1234987390217168e+00 -3.2967817308640290e-02 0.0000000000000000e+00  1.1259153465799987e+00 -2.5568102573984723e-02 0.0000000000000000e+00  1.1271646058397264e+00 -1.8097294325456315e-02 0.0000000000000000e+00  1.1271653758991957e+00 -1.0455213604963029e-02 0.0000000000000000e+00  1.1259544167085374e+00 -3.4163647656732291e-03 0.0000000000000000e+00  1.1235750687175854e+00 3.4659548396642867e-03 0.0000000000000000e+00  1.1199997573962959e+00 9.6548774655158768e-03 0.0000000000000000e+00  1.1156602724488722e+00 1.4783737463461930e-02 0.0000000000000000e+00  1.1104447692913713e+00 1.8797621573442756e-02 0.0000000000000000e+00  1.1046945167539008e+00 2.1612043365624126e-02 0.0000000000000000e+00  1.0986223507573769e+00 2.3200533873097982e-02 0.0000000000000000e+00  1.0925367741963030e+00 2.3290756038493121e-02 0.0000000000000000e+00  1.0865903775522781e+00 2.2094701599921756e-02 0.0000000000000000e+00  1.0812018869736615e+00 1.9689687915395108e-02 0.0000000000000000e+00  1.0766538928244185e+00 1.5996679420620392e-02 0.0000000000000000e+00  1.0730788142970293e+00 1.138388