<?xml version="1.0"?>
<VTKFile type="UnstructuredGrid"  version="0.1"  >
<UnstructuredGrid>
<Piece  NumberOfPoints="10199" NumberOfCells="20110">
<Points>
<DataArray  type="Float64"  NumberOfComponents="3"  format="ascii">0 -5 0  8 -5 0  30 -5 0  40 -5 0  40 5 0  30 5 0  8 5 0  0 5 0  8 -2.5 0  15 -2.5 0  30 -2.5 0  30 2.5 0  15 2.5 0  8 2.5 0  10 0.5 0  10 -0.5 0  0 0 0  0.4210526315780956 -5 0  0.8421052631563433 -5 0  1.263157894734281 -5 0  1.684210526311999 -5 0  2.105263157889717 -5 0  2.526315789467435 -5 0  2.947368421045153 -5 0  3.368421052622872 -5 0  3.78947368420059 -5 0  4.210526315779479 -5 0  4.631578947359537 -5 0  5.052631578939595 -5 0  5.473684210519653 -5 0  5.89473684209971 -5 0  6.315789473679768 -5 0  6.736842105259826 -5 0  7.157894736839884 -5 0  7.578947368419942 -5 0  8.407407407405314 -5 0  8.814814814810628 -5 0  9.222222222215942 -5 0  9.629629629621256 -5 0  10.03703703702657 -5 0  10.44444444443188 -5 0  10.8518518518372 -5 0  11.25925925924251 -5 0  11.66666666664783 -5 0  12.07407407405314 -5 0  12.48148148145846 -5 0  12.88888888886377 -5 0  13.29629629626908 -5 0  13.7037037036744 -5 0  14.11111111107971 -5 0  14.51851851848502 -5 0  14.92592592589034 -5 0  15.33333333329565 -5 0  15.74074074070096 -5 0  16.14814814810754 -5 0  16.55555555551614 -5 0  16.96296296292474 -5 0  17.37037037033335 -5 0  17.77777777774195 -5 0  18.18518518515056 -5 0  18.59259259255916 -5 0  18.99999999996776 -5 0  19.40740740737636 -5 0  19.81481481478497 -5 0  20.22222222219357 -5 0  20.62962962960217 -5 0  21.03703703701077 -5 0  21.44444444441937 -5 0  21.85185185182797 -5 0  22.25925925923657 -5 0  22.66666666664518 -5 0  23.07407407405378 -5 0  23.48148148146238 -5 0  23.88888888887098 -5 0  24.29629629627958 -5 0  24.70370370368818 -5 0  25.11111111109678 -5 0  25.51851851850539 -5 0  25.92592592591399 -5 0  26.33333333332259 -5 0  26.74074074073119 -5 0  27.14814814813979 -5 0  27.55555555554839 -5 0  27.96296296295699 -5 0  28.3703703703656 -5 0  28.7777777777742 -5 0  29.1851851851828 -5 0  29.5925925925914 -5 0  30.41666666667852 -5 0  30.83333333335704 -5 0  31.25000000003556 -5 0  31.66666666671408 -5 0  32.08333333338936 -5 0  32.50000000005308 -5 0  32.9166666667168 -5 0  33.33333333338052 -5 0  33.75000000004424 -5 0  34.16666666670795 -5 0  34.58333333337167 -5 0  35.00000000003539 -5 0  35.41666666669911 -5 0  35.83333333336282 -5 0  36.25000000002654 -5 0  36.66666666669026 -5 0  37.08333333335398 -5 0  37.50000000001769 -5 0  37.91666666668141 -5 0  38.33333333334513 -5 0  38.75000000000885 -5 0  39.16666666667257 -5 0  39.58333333333628 -5 0  40 -4.583333333332821 0  40 -4.166666666665642 0  40 -3.74999999999855 0  40 -3.333333333333135 0  40 -2.916666666667806 0  40 -2.500000000002478 0  40 -2.083333333337148 0  40 -1.666666666671818 0  40 -1.250000000006488 0  40 -0.8333333333405228 0  40 -0.4166666666733416 0  40 -6.163070054299169e-12 0  40 0.4166666666610173 0  40 0.8333333333281976 0  40 1.249999999995378 0  40 1.666666666662558 0  40 2.083333333329739 0  40 2.499999999996919 0  40 2.916666666664099 0  40 3.33333333333128 0  40 3.74999999999846 0  40 4.166666666665641 0  40 4.583333333332821 0  39.58333333333628 5 0  39.16666666667256 5 0  38.75000000000885 5 0  38.33333333334513 5 0  37.91666666668141 5 0  37.50000000001769 5 0  37.08333333335398 5 0  36.66666666669025 5 0  36.25000000002654 5 0  35.83333333336282 5 0  35.41666666669911 5 0  35.00000000003539 5 0  34.58333333337167 5 0  34.16666666670795 5 0  33.75000000004424 5 0  33.33333333338052 5 0  32.9166666667168 5 0  32.50000000005308 5 0  32.08333333338936 5 0  31.66666666671408 5 0  31.25000000003556 5 0  30.83333333335704 5 0  30.41666666667852 5 0  29.59259259259259 5 0  29.18518518518519 5 0  28.77777777777778 5 0  28.37037037037037 5 0  27.96296296296296 5 0  27.55555555555556 5 0  27.14814814814815 5 0  26.74074074074074 5 0  26.33333333333333 5 0  25.92592592592593 5 0  25.51851851851852 5 0  25.11111111111111 5 0  24.7037037037037 5 0  24.2962962962963 5 0  23.88888888888889 5 0  23.48148148148148 5 0  23.07407407407408 5 0  22.66666666666667 5 0  22.25925925925926 5 0  21.85185185185185 5 0  21.44444444444445 5 0  21.03703703703704 5 0  20.62962962962963 5 0  20.22222222222222 5 0  19.81481481481482 5 0  19.40740740740741 5 0  19 5 0  18.5925925925926 5 0  18.18518518518519 5 0  17.77777777777778 5 0  17.37037037037037 5 0  16.96296296296296 5 0  16.55555555555556 5 0  16.14814814814815 5 0  15.74074074074074 5 0  15.33333333333333 5 0  14.92592592592593 5 0  14.51851851851852 5 0  14.11111111111111 5 0  13.70370370370371 5 0  13.2962962962963 5 0  12.88888888888889 5 0  12.48148148148148 5 0  12.07407407407408 5 0  11.66666666666667 5 0  11.25925925925926 5 0  10.85185185185185 5 0  10.44444444444445 5 0  10.03703703703704 5 0  9.629629629629633 5 0  9.222222222222221 5 0  8.814814814814817 5 0  8.407407407407408 5 0  7.5789473684193 5 0  7.157894736838599 5 0  6.73684210526082 5 0  6.315789473684795 5 0  5.894736842108769 5 0  5.473684210532742 5 0  5.052631578956715 5 0  4.631578947380689 5 0  4.210526315804662 5 0  3.789473684226299 5 0  3.368421052645599 5 0  2.947368421064898 5 0  2.526315789484198 5 0  2.105263157903499 5 0  1.6842105263228 5 0  1.2631578947421 5 0  0.8421052631613994 5 0  0.4210526315806993 5 0  0 4.545454545454545 0  0 4.09090909090909 0  0 3.636363636363634 0  0 3.18181818181818 0  0 2.727272727272726 0  0 2.272727272727271 0  0 1.818181818181817 0  0 1.363636363636363 0  0 0.9090909090909092 0  0 0.454545454545455 0  0 -0.4545454545450807 0  0 -0.9090909090895867 0  0 -1.363636363633713 0  0 -1.818181818177841 0  0 -2.272727272723127 0  0 -2.727272727269273 0  0 -3.181818181815419 0  0 -3.636363636361564 0  0 -4.090909090907709 0  0 -4.545454545453855 0  8 -4.499999999999999 0  8 -3.999999999999999 0  8 -3.499999999999999 0  8 -3 0  8.137254901963859 -2.5 0  8.274509803926303 -2.5 0  8.411764705886863 -2.5 0  8.549019607849138 -2.5 0  8.686274509809513 -2.5 0  8.82352941176989 -2.5 0  8.960784313730265 -2.5 0  9.098039215690642 -2.5 0  9.235294117651017 -2.5 0  9.372549019611395 -2.5 0  9.50980392157177 -2.5 0  9.647058823532147 -2.5 0  9.784313725492522 -2.5 0  9.921568627452897 -2.5 0  10.05882352941327 -2.5 0  10.19607843137365 -2.5 0  10.33333333333402 -2.5 0  10.4705882352944 -2.5 0  10.60784313725478 -2.5 0  10.74509803921515 -2.5 0  10.88235294117553 -2.5 0  11.0196078431359 -2.5 0  11.15686274509628 -2.5 0  11.29411764705665 -2.5 0  11.43137254901703 -2.5 0  11.56862745097915 -2.5 0  11.70588235294301 -2.5 0  11.84313725490686 -2.5 0  11.98039215687072 -2.5 0  12.11764705883209 -2.5 0  12.25490196079247 -2.5 0  12.39215686275285 -2.5 0  12.52941176471322 -2.5 0  12.6666666666736 -2.5 0  12.80392156863397 -2.5 0  12.94117647059435 -2.5 0  13.07843137255473 -2.5 0  13.2156862745151 -2.5 0  13.35294117647548 -2.5 0  13.49019607843586 -2.5 0  13.62745098039623 -2.5 0  13.76470588235661 -2.5 0  13.90196078431699 -2.5 0  14.03921568627736 -2.5 0  14.17647058823774 -2.5 0  14.31372549019812 -2.5 0  14.45098039215849 -2.5 0  14.58823529411887 -2.5 0  14.72549019607925 -2.5 0  14.86274509803962 -2.5 0  15.20270270270254 -2.5 0  15.40540540540509 -2.5 0  15.60810810810763 -2.5 0  15.81081081081017 -2.5 0  16.01351351351227 -2.5 0  16.21621621621265 -2.5 0  16.41891891891279 -2.5 0  16.62162162161294 -2.5 0  16.82432432431308 -2.5 0  17.02702702701322 -2.5 0  17.22972972971337 -2.5 0  17.43243243241351 -2.5 0  17.63513513511365 -2.5 0  17.83783783781379 -2.5 0  18.04054054051394 -2.5 0  18.24324324321408 -2.5 0  18.44594594591422 -2.5 0  18.64864864861436 -2.5 0  18.85135135131451 -2.5 0  19.05405405401465 -2.5 0  19.25675675671479 -2.5 0  19.45945945941494 -2.5 0  19.66216216211508 -2.5 0  19.86486486481522 -2.5 0  20.06756756751536 -2.5 0  20.27027027021551 -2.5 0  20.47297297291565 -2.5 0  20.6756756756158 -2.5 0  20.87837837831594 -2.5 0  21.08108108101608 -2.5 0  21.28378378371622 -2.5 0  21.48648648641637 -2.5 0  21.68918918911651 -2.5 0  21.89189189181666 -2.5 0  22.0945945945168 -2.5 0  22.29729729721694 -2.5 0  22.49999999991778 -2.5 0  22.70270270262203 -2.5 0  22.90540540532697 -2.5 0  23.10810810803191 -2.5 0  23.31081081073686 -2.5 0  23.5135135134418 -2.5 0  23.71621621614674 -2.5 0  23.91891891885169 -2.5 0  24.12162162155663 -2.5 0  24.32432432426158 -2.5 0  24.52702702696652 -2.5 0  24.72972972967146 -2.5 0  24.93243243237641 -2.5 0  25.13513513508135 -2.5 0  25.3378378377863 -2.5 0  25.54054054049124 -2.5 0  25.74324324319618 -2.5 0  25.94594594590112 -2.5 0  26.14864864860607 -2.5 0  26.35135135131101 -2.5 0  26.55405405401596 -2.5 0  26.7567567567209 -2.5 0  26.95945945942584 -2.5 0  27.16216216213079 -2.5 0  27.36486486483573 -2.5 0  27.56756756754068 -2.5 0  27.77027027024562 -2.5 0  27.97297297295056 -2.5 0  28.1756756756555 -2.5 0  28.37837837836045 -2.5 0  28.5810810810654 -2.5 0  28.78378378377034 -2.5 0  28.98648648647528 -2.5 0  29.18918918918023 -2.5 0  29.39189189188517 -2.5 0  29.59459459459011 -2.5 0  29.79729729729506 -2.5 0  30 -3.000000000000001 0  30 -3.500000000000001 0  30 -4.000000000000001 0  30 -4.5 0  8 4.499999999999999 0  8 3.999999999999999 0  8 3.499999999999999 0  8 3 0  8.137254901963859 2.5 0  8.274509803926303 2.5 0  8.411764705886863 2.5 0  8.549019607849138 2.5 0  8.686274509809513 2.5 0  8.82352941176989 2.5 0  8.960784313730265 2.5 0  9.098039215690642 2.5 0  9.235294117651017 2.5 0  9.372549019611395 2.5 0  9.50980392157177 2.5 0  9.647058823532147 2.5 0  9.784313725492522 2.5 0  9.921568627452897 2.5 0  10.05882352941327 2.5 0  10.19607843137365 2.5 0  10.33333333333402 2.5 0  10.4705882352944 2.5 0  10.60784313725478 2.5 0  10.74509803921515 2.5 0  10.88235294117553 2.5 0  11.0196078431359 2.5 0  11.15686274509628 2.5 0  11.29411764705665 2.5 0  11.43137254901703 2.5 0  11.56862745097915 2.5 0  11.70588235294301 2.5 0  11.84313725490686 2.5 0  11.98039215687072 2.5 0  12.11764705883209 2.5 0  12.25490196079247 2.5 0  1
[...]
<PointData  Vectors="f_17"> 
<DataArray  type="Float64"  Name="f_17"  NumberOfComponents="3" format="ascii">1.0000001319164704e+00 0.0000000000000000e+00 0.0000000000000000e+00  1.0418453368012712e+00 0.0000000000000000e+00 0.0000000000000000e+00  1.0626259880482753e+00 0.0000000000000000e+00 0.0000000000000000e+00  1.0921276873921655e+00 0.0000000000000000e+00 0.0000000000000000e+00  1.0754801063330930e+00 0.0000000000000000e+00 0.0000000000000000e+00  1.0514922347999562e+00 0.0000000000000000e+00 0.0000000000000000e+00  1.0390883506124344e+00 0.0000000000000000e+00 0.0000000000000000e+00  1.0000001319164704e+00 0.0000000000000000e+00 0.0000000000000000e+00  1.0254012586474044e+00 -5.1013669792284985e-02 0.0000000000000000e+00  1.1254952043604947e+00 5.7702283747964038e-02 0.0000000000000000e+00  1.1467649528148485e+00 -5.5403562098214440e-02 0.0000000000000000e+00  9.9938986989340095e-01 -4.8266985319804744e-02 0.0000000000000000e+00  9.8745533779844352e-01 4.1743631825555047e-04 0.0000000000000000e+00  1.0174198828701635e+00 5.0677874709409050e-02 0.0000000000000000e+00  0.0000000000000000e+00 0.0000000000000000e+00 0.0000000000000000e+00  0.0000000000000000e+00 0.0000000000000000e+00 0.0000000000000000e+00  1.0000001319164704e+00 0.0000000000000000e+00 0.0000000000000000e+00  9.9931223547879500e-01 0.0000000000000000e+00 0.0000000000000000e+00  9.9882479175244099e-01 0.0000000000000000e+00 0.0000000000000000e+00  1.0009575971433431e+00 0.0000000000000000e+00 0.0000000000000000e+00  1.0008964647886924e+00 0.0000000000000000e+00 0.0000000000000000e+00  1.0020064444261567e+00 0.0000000000000000e+00 0.0000000000000000e+00  1.0024619965468224e+00 0.0000000000000000e+00 0.0000000000000000e+00  1.0028733654720454e+00 0.0000000000000000e+00 0.0000000000000000e+00  1.0037765061308206e+00 0.0000000000000000e+00 0.0000000000000000e+00  1.0050612833953294e+00 0.0000000000000000e+00 0.0000000000000000e+00  1.0061962686917112e+00 0.0000000000000000e+00 0.0000000000000000e+00  1.0076770603695806e+00 0.0000000000000000e+00 0.0000000000000000e+00  1.0098719807543286e+00 0.0000000000000000e+00 0.0000000000000000e+00  1.0121941692672327e+00 0.0000000000000000e+00 0.0000000000000000e+00  1.0161026449645019e+00 0.0000000000000000e+00 0.0000000000000000e+00  1.0177897069913537e+00 0.0000000000000000e+00 0.0000000000000000e+00  1.0222887369553084e+00 0.0000000000000000e+00 0.0000000000000000e+00  1.0289305188189330e+00 0.0000000000000000e+00 0.0000000000000000e+00  1.0341957576871665e+00 0.0000000000000000e+00 0.0000000000000000e+00  1.0493957711327664e+00 0.0000000000000000e+00 0.0000000000000000e+00  1.0571917808135614e+00 0.0000000000000000e+00 0.0000000000000000e+00  1.0641638675371401e+00 0.0000000000000000e+00 0.0000000000000000e+00  1.0712840608229586e+00 0.0000000000000000e+00 0.0000000000000000e+00  1.0766798003351055e+00 0.0000000000000000e+00 0.0000000000000000e+00  1.0811294774103699e+00 0.0000000000000000e+00 0.0000000000000000e+00  1.0850766489609642e+00 0.0000000000000000e+00 0.0000000000000000e+00  1.0865991068177809e+00 0.0000000000000000e+00 0.0000000000000000e+00  1.0876140689898277e+00 0.0000000000000000e+00 0.0000000000000000e+00  1.0876588137596963e+00 0.0000000000000000e+00 0.0000000000000000e+00  1.0876695644657519e+00 0.0000000000000000e+00 0.0000000000000000e+00  1.0864280426910948e+00 0.0000000000000000e+00 0.0000000000000000e+00  1.0858852968776522e+00 0.0000000000000000e+00 0.0000000000000000e+00  1.0846378086639117e+00 0.0000000000000000e+00 0.0000000000000000e+00  1.0822595060201479e+00 0.0000000000000000e+00 0.0000000000000000e+00  1.0790042633096819e+00 0.0000000000000000e+00 0.0000000000000000e+00  1.0742314760708229e+00 0.0000000000000000e+00 0.0000000000000000e+00  1.0682600371032807e+00 0.0000000000000000e+00 0.0000000000000000e+00  1.0610928890215283e+00 0.0000000000000000e+00 0.0000000000000000e+00  1.0535778174464849e+00 0.0000000000000000e+00 0.0000000000000000e+00  1.0478197551529289e+00 0.0000000000000000e+00 0.0000000000000000e+00  1.0440824268405655e+00 0.0000000000000000e+00 0.0000000000000000e+00  1.0412653603461750e+00 0.0000000000000000e+00 0.0000000000000000e+00  1.0418208692514961e+00 0.0000000000000000e+00 0.0000000000000000e+00  1.0445263352202074e+00 0.0000000000000000e+00 0.0000000000000000e+00  1.0488211421998557e+00 0.0000000000000000e+00 0.0000000000000000e+00  1.0542917340815976e+00 0.0000000000000000e+00 0.0000000000000000e+00  1.0588200075740166e+00 0.0000000000000000e+00 0.0000000000000000e+00  1.0618278175171141e+00 0.0000000000000000e+00 0.0000000000000000e+00  1.0629782403930439e+00 0.0000000000000000e+00 0.0000000000000000e+00  1.0608362767743271e+00 0.0000000000000000e+00 0.0000000000000000e+00  1.0566671770830542e+00 0.0000000000000000e+00 0.0000000000000000e+00  1.0527989021393513e+00 0.0000000000000000e+00 0.0000000000000000e+00  1.0479034563671323e+00 0.0000000000000000e+00 0.0000000000000000e+00  1.0438527133345354e+00 0.0000000000000000e+00 0.0000000000000000e+00  1.0426522675468730e+00 0.0000000000000000e+00 0.0000000000000000e+00  1.0427588974699236e+00 0.0000000000000000e+00 0.0000000000000000e+00  1.0448419305044823e+00 0.0000000000000000e+00 0.0000000000000000e+00  1.0501064783588814e+00 0.0000000000000000e+00 0.0000000000000000e+00  1.0550761503815489e+00 0.0000000000000000e+00 0.0000000000000000e+00  1.0595372999419790e+00 0.0000000000000000e+00 0.0000000000000000e+00  1.0634209924713827e+00 0.0000000000000000e+00 0.0000000000000000e+00  1.0645113223396807e+00 0.0000000000000000e+00 0.0000000000000000e+00  1.0633109114118713e+00 0.0000000000000000e+00 0.0000000000000000e+00  1.0608652628342679e+00 0.0000000000000000e+00 0.0000000000000000e+00  1.0565116025692380e+00 0.0000000000000000e+00 0.0000000000000000e+00  1.0519127270567632e+00 0.0000000000000000e+00 0.0000000000000000e+00  1.0507350899787802e+00 0.0000000000000000e+00 0.0000000000000000e+00  1.0492276738187138e+00 0.0000000000000000e+00 0.0000000000000000e+00  1.0480300278695338e+00 0.0000000000000000e+00 0.0000000000000000e+00  1.0498283738775978e+00 0.0000000000000000e+00 0.0000000000000000e+00  1.0543988110168119e+00 0.0000000000000000e+00 0.0000000000000000e+00  1.0586523283662583e+00 0.0000000000000000e+00 0.0000000000000000e+00  1.0650496930646105e+00 0.0000000000000000e+00 0.0000000000000000e+00  1.0646928594368366e+00 0.0000000000000000e+00 0.0000000000000000e+00  1.0623036349451607e+00 0.0000000000000000e+00 0.0000000000000000e+00  1.0594624026565025e+00 0.0000000000000000e+00 0.0000000000000000e+00  1.0558586518643742e+00 0.0000000000000000e+00 0.0000000000000000e+00  1.0524334544164025e+00 0.0000000000000000e+00 0.0000000000000000e+00  1.0503687993931770e+00 0.0000000000000000e+00 0.0000000000000000e+00  1.0505981242204989e+00 0.0000000000000000e+00 0.0000000000000000e+00  1.0527796013011630e+00 0.0000000000000000e+00 0.0000000000000000e+00  1.0560364407389458e+00 0.0000000000000000e+00 0.0000000000000000e+00  1.0605723992287648e+00 0.0000000000000000e+00 0.0000000000000000e+00  1.0646108564659431e+00 0.0000000000000000e+00 0.0000000000000000e+00  1.0672629830129403e+00 0.0000000000000000e+00 0.0000000000000000e+00  1.0687866830551009e+00 0.0000000000000000e+00 0.0000000000000000e+00  1.0684514109029992e+00 0.0000000000000000e+00 0.0000000000000000e+00  1.0672730940470345e+00 0.0000000000000000e+00 0.0000000000000000e+00  1.0646301108698930e+00 0.0000000000000000e+00 0.0000000000000000e+00  1.0629180871831749e+00 0.0000000000000000e+00 0.0000000000000000e+00  1.0623277609393560e+00 0.0000000000000000e+00 0.0000000000000000e+00  1.0644734798338971e+00 0.0000000000000000e+00 0.0000000000000000e+00  1.0685583034485402e+00 0.0000000000000000e+00 0.0000000000000000e+00  1.0756961847042958e+00 0.0000000000000000e+00 0.0000000000000000e+00  1.0833785691757418e+00 0.0000000000000000e+00 0.0000000000000000e+00  1.0934067518303225e+00 -8.4040016108563181e-03 0.0000000000000000e+00  1.0965296006097369e+00 -1.8592142169122524e-02 0.0000000000000000e+00  1.1021177985761288e+00 -3.2549314854340927e-02 0.0000000000000000e+00  1.1098854743713742e+00 -5.3525646741302328e-02 0.0000000000000000e+00  1.1241252044398837e+00 -8.7995321528621079e-02 0.0000000000000000e+00  1.1362261025833553e+00 -1.3567173264357579e-01 0.0000000000000000e+00  1.1227416236990693e+00 -1.9493564188488752e-01 0.0000000000000000e+00  1.0605534760719826e+00 -2.4611005764876800e-01 0.0000000000000000e+00  9.5070131197000762e-01 -2.7110404886124423e-01 0.0000000000000000e+00  8.3291201915029667e-01 -2.6215628360353416e-01 0.0000000000000000e+00  7.5040235688185974e-01 -2.3905567234954980e-01 0.0000000000000000e+00  7.2615689937851458e-01 -2.1647885521118493e-01 0.0000000000000000e+00  7.5210953873956110e-01 -1.9861057778021601e-01 0.0000000000000000e+00  8.1426929020102579e-01 -1.7504376517591219e-01 0.0000000000000000e+00  8.8959397123171247e-01 -1.4809297795645049e-01 0.0000000000000000e+00  9.5850953876110334e-01 -1.1302144462642667e-01 0.0000000000000000e+00  1.0078291154923629e+00 -8.0061382601658390e-02 0.0000000000000000e+00  1.0393793026846563e+00 -5.0156463447906634e-02 0.0000000000000000e+00  1.0570732596667425e+00 -2.8813535477564427e-02 0.0000000000000000e+00  1.0676156232723524e+00 -1.5550391382192550e-02 0.0000000000000000e+00  1.0726437426411624e+00 -7.9254408103985631e-03 0.0000000000000000e+00  1.0754245416079360e+00 -3.7948504266636630e-03 0.0000000000000000e+00  1.0758564005833051e+00 -1.5023043408998638e-03 0.0000000000000000e+00  1.0768940656019963e+00 0.0000000000000000e+00 0.0000000000000000e+00  1.0785079416503325e+00 0.0000000000000000e+00 0.0000000000000000e+00  1.0793334334190130e+00 0.0000000000000000e+00 0.0000000000000000e+00  1.0789065202152126e+00 0.0000000000000000e+00 0.0000000000000000e+00  1.0760113623946097e+00 0.0000000000000000e+00 0.0000000000000000e+00  1.0719616173366235e+00 0.0000000000000000e+00 0.0000000000000000e+00  1.0671057998758826e+00 0.0000000000000000e+00 0.0000000000000000e+00  1.0623032326040280e+00 0.0000000000000000e+00 0.0000000000000000e+00  1.0578773853925532e+00 0.0000000000000000e+00 0.0000000000000000e+00  1.0554479819570890e+00 0.0000000000000000e+00 0.0000000000000000e+00  1.0551627153346077e+00 0.0000000000000000e+00 0.0000000000000000e+00  1.0565927740012977e+00 0.0000000000000000e+00 0.0000000000000000e+00  1.0594774326503091e+00 0.0000000000000000e+00 0.0000000000000000e+00  1.0633091934217203e+00 0.0000000000000000e+00 0.0000000000000000e+00  1.0657592376814382e+00 0.0000000000000000e+00 0.0000000000000000e+00  1.0676226797765682e+00 0.0000000000000000e+00 0.0000000000000000e+00  1.0663007379499099e+00 0.0000000000000000e+00 0.0000000000000000e+00  1.0636897362628603e+00 0.0000000000000000e+00 0.0000000000000000e+00  1.0596011611691325e+00 0.0000000000000000e+00 0.0000000000000000e+00  1.0556451761049841e+00 0.0000000000000000e+00 0.0000000000000000e+00  1.0521503034672268e+00 0.0000000000000000e+00 0.0000000000000000e+00  1.0496171021688927e+00 0.0000000000000000e+00 0.0000000000000000e+00  1.0496553811823597e+00 0.0000000000000000e+00 0.0000000000000000e+00  1.0539938447969173e+00 0.0000000000000000e+00 0.0000000000000000e+00  1.0580836852578732e+00 0.0000000000000000e+00 0.0000000000000000e+00  1.0606860810425518e+00 0.0000000000000000e+00 0.0000000000000000e+00  1.0635804158512541e+00 0.0000000000000000e+00 0.0000000000000000e+00  1.0653980097092013e+00 0.0000000000000000e+00 0.0000000000000000e+00  1.0638581132674019e+00 0.0000000000000000e+00 0.0000000000000000e+00  1.0586590431291745e+00 0.0000000000000000e+00 0.0000000000000000e+00  1.0548736198135653e+00 0.0000000000000000e+00 0.0000000000000000e+00  1.0509423689317974e+00 0.0000000000000000e+00 0.0000000000000000e+00  1.0471833846209790e+00 0.0000000000000000e+00 0.0000000000000000e+00  1.0458238002261806e+00 0.0000000000000000e+00 0.0000000000000000e+00  1.0465348153794614e+00 0.0000000000000000e+00 0.0000000000000000e+00  1.0484574890413436e+00 0.0000000000000000e+00 0.0000000000000000e+00  1.0524808485955921e+00 0.0000000000000000e+00 0.0000000000000000e+00  1.0568648074052864e+00 0.0000000000000000e+00 0.0000000000000000e+00  1.0597657748341240e+00 0.0000000000000000e+00 0.0000000000000000e+00  1.0622511054924220e+00 0.0000000000000000e+00 0.0000000000000000e+00  1.0623553856910151e+00 0.0000000000000000e+00 0.0000000000000000e+00  1.0591901535346957e+00 0.0000000000000000e+00 0.0000000000000000e+00  1.0550400635363215e+00 0.0000000000000000e+00 0.0000000000000000e+00  1.0497196753168030e+00 0.0000000000000000e+00 0.0000000000000000e+00  1.0434505558850826e+00 0.0000000000000000e+00 0.0000000000000000e+00  1.0400404963381471e+00 0.0000000000000000e+00 0.0000000000000000e+00  1.0385351818716186e+00 0.0000000000000000e+00 0.0000000000000000e+00  1.0387355592100680e+00 0.0000000000000000e+00 0.0000000000000000e+00  1.0417208765967851e+00 0.0000000000000000e+00 0.0000000000000000e+00  1.0465549504605416e+00 0.0000000000000000e+00 0.0000000000000000e+00  1.0519530364533811e+00 0.0000000000000000e+00 0.0000000000000000e+00  1.0576483470143538e+00 0.0000000000000000e+00 0.0000000000000000e+00  1.0622574587592328e+00 0.0000000000000000e+00 0.0000000000000000e+00  1.0647760240269100e+00 0.0000000000000000e+00 0.0000000000000000e+00  1.0659293424090137e+00 0.0000000000000000e+00 0.0000000000000000e+00  1.0641318786818108e+00 0.0000000000000000e+00 0.0000000000000000e+00  1.0615588508343867e+00 0.0000000000000000e+00 0.0000000000000000e+00  1.0597746894305526e+00 0.0000000000000000e+00 0.0000000000000000e+00  1.0587208482471129e+00 0.0000000000000000e+00 0.0000000000000000e+00  1.0588573691673400e+00 0.0000000000000000e+00 0.0000000000000000e+00  1.0607010056493740e+00 0.0000000000000000e+00 0.0000000000000000e+00  1.0649109515269917e+00 0.0000000000000000e+00 0.0000000000000000e+00  1.0714516100801232e+00 0.0000000000000000e+00 0.0000000000000000e+00  1.0780969108149066e+00 0.0000000000000000e+00 0.0000000000000000e+00  1.0844156560755607e+00 0.0000000000000000e+00 0.0000000000000000e+00  1.0912956394503783e+00 0.0000000000000000e+00 0.0000000000000000e+00  1.0948086197112246e+00 0.0000000000000000e+00 0.0000000000000000e+00  1.0970859281253444e+00 0.0000000000000000e+00 0.0000000000000000e+00  1.0965872543696364e+00 0.0000000000000000e+00 0.0000000000000000e+00  1.0931956108142060e+00 0.0000000000000000e+00 0.0000000000000000e+00  1.0878313352065094e+00 0.0000000000000000e+00 0.0000000000000000e+00  1.0811268761728468e+00 0.0000000000000000e+00 0.0000000000000000e+00  1.0733473631001036e+00 0.0000000000000000e+00 0.0000000000000000e+00  1.0641808208173813e+00 0.0000000000000000e+00 0.0000000000000000e+00  1.0559333690475210e+00 0.0000000000000000e+00 0.0000000000000000e+00  1.0472350197957248e+00 0.0000000000000000e+00 0.0000000000000000e+00  1.0313414445105891e+00 0.0000000000000000e+00 0.0000000000000000e+00  1.0247341321438037e+00 0.0000000000000000e+00 0.0000000000000000e+00  1.0195615811188903e+00 0.0000000000000000e+00 0.0000000000000000e+00  1.0149697749740458e+00 0.0000000000000000e+00 0.0000000000000000e+00  1.0112198369029670e+00 0.0000000000000000e+00 0.0000000000000000e+00  1.0082781868841015e+00 0.0000000000000000e+00 0.0000000000000000e+00  1.0060561050314791e+00 0.0000000000000000e+00 0.0000000000000000e+00  1.0038949429434194e+00 0.0000000000000000e+00 0.0000000000000000e+00  1.0024537545594294e+00 0.0000000000000000e+00 0.0000000000000000e+00  1.0014756507021190e+00 0.0000000000000000e+00 0.0000000000000000e+00  1.0003973840072899e+00 0.0000000000000000e+00 0.0000000000000000e+00  1.0003834882303342e+00 0.0000000000000000e+00 0.0000000000000000e+00  9.9950546536154050e-01 0.0000000000000000e+00 0.0000000000000000e+00  9.9966419148138408e-01 0.0000000000000000e+00 0.0000000000000000e+00  9.9945428148164517e-01 0.0000000000000000e+00 0.0000000000000000e+00  1.0002923981025322e+00 0.0000000000000000e+00 0.0000000000000000e+00  1.0001674140150985e+00 0.0000000000000000e+00 0.0000000000000000e+00  9.9978625631941331e-01 0.0000000000000000e+00 0.0000000000000000e+00  1.0000001319164704e+00 0.0000000000000000e+00 0.0000000000000000e+00  1.0000001319164704e+00 0.0000000000000000e+00 0.0000000000000000e+00  1.0000001319164704e+00 0.0000000000000000e+00 0.0000000000000000e+00  1.0000001319164704e+00 0.0000000000000000e+00 0.0000000000000000e+00  1.0000001319164704e+00 0.0000000000000000e+00 0.0000000000000000e+00  1.0000001319164704e+00 0.0000000000000000e+00 0.0000000000000000e+00  1.0000001319164704e+00 0.0000000000000000e+00 0.0000000000000000e+00  1.0000001319164704e+00 0.0000000000000000e+00 0.0000000000000000e+00  1.0000001319164704e+00 0.0000000000000000e+00 0.0000000000000000e+00  1.0000001319164704e+00 0.0000000000000000e+00 0.0000000000000000e+00  1.0000001319164704e+00 0.0000000000000000e+00 0.0000000000000000e+00  1.0000001319164704e+00 0.0000000000000000e+00 0.0000000000000000e+00  1.0000001319164704e+00 0.0000000000000000e+00 0.0000000000000000e+00  1.0000001319164704e+00 0.0000000000000000e+00 0.0000000000000000e+00  1.0000001319164704e+00 0.0000000000000000e+00 0.0000000000000000e+00  1.0000001319164704e+00 0.0000000000000000e+00 0.0000000000000000e+00  1.0000001319164704e+00 0.0000000000000000e+00 0.0000000000000000e+00  1.0000001319164704e+00 0.0000000000000000e+00 0.0000000000000000e+00  1.0000001319164704e+00 0.0000000000000000e+00 0.0000000000000000e+00  1.0000001319164704e+00 0.0000000000000000e+00 0.0000000000000000e+00  1.0413625370575410e+00 -8.9327010722077826e-03 0.0000000000000000e+00  1.0388160216789066e+00 -1.8150716542242470e-02 0.0000000000000000e+00  1.0373138292937760e+00 -2.8437438254363661e-02 0.0000000000000000e+00  1.0326536646889917e+00 -3.9359672991936323e-02 0.0000000000000000e+00  1.0283246981173928e+00 -5.4308619676902932e-02 0.0000000000000000e+00  1.0330695572517923e+00 -5.7174718966870673e-02 0.0000000000000000e+00  1.0373450511713485e+00 -6.0042304382798839e-02 0.0000000000000000e+00  1.0426538700686463e+00 -6.2487162767088648e-02 0.0000000000000000e+00  1.0481580992046586e+00 -6.4687892648396056e-02 0.0000000000000000e+00  1.0542430156908147e+00 -6.6336355289892748e-02 0.0000000000000000e+00  1.0608341322252894e+00 -6.7523752539599163e-02 0.0000000000000000e+00  1.0677426729322981e+00 -6.7917215011174564e-02 0.0000000000000000e+00  1.0750611259560834e+00 -6.7625593666109624e-02 0.0000000000000000e+00  1.0822960927936172e+00 -6.6311691528245439e-02 0.0000000000000000e+00  1.0896756044894893e+00 -6.4254329106173638e-02 0.0000000000000000e+00  1.0968087558149169e+00 -6.1358280093815165e-02 0.0000000000000000e+00  1.1037806092295490e+00 -5.7280695399830800e-02 0.0000000000000000e+00  1.1100320751921662e+00 -5.2203294394513176e-02 0.0000000000000000e+00  1.1155992680518176e+00 -4.6476997018835085e-02 0.0000000000000000e+00  1.1203161074534917e+00 -4.0002127459874685e-02 0.0000000000000000e+00  1.1239328273712013e+00 -3.2934171053795334e-02 0.0000000000000000e+00  1.1263913919450561e+00 -2.5478479597186188e-02 0.0000000000000000e+00  1.1276770108748491e+00 -1.7936842026525138e-02 0.0000000000000000e+00  1.1277097543060461e+00 -1.0210004362979896e-02 0.0000000000000000e+00  1.1265210563749886e+00 -3.0701596322323076e-03 0.0000000000000000e+00  1.1241515962751678e+00 3.9241495521330589e-03 0.0000000000000000e+00  1.1205660516765883e+00 1.0240906524463208e-02 0.0000000000000000e+00  1.1161959482428727e+00 1.5509488830735104e-02 0.0000000000000000e+00  1.1109208793140213e+00 1.9670026523922697e-02 0.0000000000000000e+00  1.1050823188901184e+00 2.2634618157882723e-02 0.0000000000000000e+00  1.0988879905536721e+00 2.4368005209054557e-02 0.0000000000000000e+00  1.0926428259259771e+00 2.4591243687684696e-02 0.0000000000000000e+00  1.0865040018860102e+00 2.3511559326211739e-02 0.0000000000000000e+00  1.0808851982768661e+00 2.1196895586780555e-02 0.0000000000000000e+00  1.0760762684996290e+00 1.7557424207074426e-02 0.0000000000000000e+00  1.0722135900402909e+00 1.295247