<?xml version="1.0"?>
<VTKFile type="UnstructuredGrid"  version="0.1"  >
<UnstructuredGrid>
<Piece  NumberOfPoints="10199" NumberOfCells="20110">
<Points>
<DataArray  type="Float64"  NumberOfComponents="3"  format="ascii">0 -5 0  8 -5 0  30 -5 0  40 -5 0  40 5 0  30 5 0  8 5 0  0 5 0  8 -2.5 0  15 -2.5 0  30 -2.5 0  30 2.5 0  15 2.5 0  8 2.5 0  10 0.5 0  10 -0.5 0  0 0 0  0.4210526315780956 -5 0  0.8421052631563433 -5 0  1.263157894734281 -5 0  1.684210526311999 -5 0  2.105263157889717 -5 0  2.526315789467435 -5 0  2.947368421045153 -5 0  3.368421052622872 -5 0  3.78947368420059 -5 0  4.210526315779479 -5 0  4.631578947359537 -5 0  5.052631578939595 -5 0  5.473684210519653 -5 0  5.89473684209971 -5 0  6.315789473679768 -5 0  6.736842105259826 -5 0  7.157894736839884 -5 0  7.578947368419942 -5 0  8.407407407405314 -5 0  8.814814814810628 -5 0  9.222222222215942 -5 0  9.629629629621256 -5 0  10.03703703702657 -5 0  10.44444444443188 -5 0  10.8518518518372 -5 0  11.25925925924251 -5 0  11.66666666664783 -5 0  12.07407407405314 -5 0  12.48148148145846 -5 0  12.88888888886377 -5 0  13.29629629626908 -5 0  13.7037037036744 -5 0  14.11111111107971 -5 0  14.51851851848502 -5 0  14.92592592589034 -5 0  15.33333333329565 -5 0  15.74074074070096 -5 0  16.14814814810754 -5 0  16.55555555551614 -5 0  16.96296296292474 -5 0  17.37037037033335 -5 0  17.77777777774195 -5 0  18.18518518515056 -5 0  18.59259259255916 -5 0  18.99999999996776 -5 0  19.40740740737636 -5 0  19.81481481478497 -5 0  20.22222222219357 -5 0  20.62962962960217 -5 0  21.03703703701077 -5 0  21.44444444441937 -5 0  21.85185185182797 -5 0  22.25925925923657 -5 0  22.66666666664518 -5 0  23.07407407405378 -5 0  23.48148148146238 -5 0  23.88888888887098 -5 0  24.29629629627958 -5 0  24.70370370368818 -5 0  25.11111111109678 -5 0  25.51851851850539 -5 0  25.92592592591399 -5 0  26.33333333332259 -5 0  26.74074074073119 -5 0  27.14814814813979 -5 0  27.55555555554839 -5 0  27.96296296295699 -5 0  28.3703703703656 -5 0  28.7777777777742 -5 0  29.1851851851828 -5 0  29.5925925925914 -5 0  30.41666666667852 -5 0  30.83333333335704 -5 0  31.25000000003556 -5 0  31.66666666671408 -5 0  32.08333333338936 -5 0  32.50000000005308 -5 0  32.9166666667168 -5 0  33.33333333338052 -5 0  33.75000000004424 -5 0  34.16666666670795 -5 0  34.58333333337167 -5 0  35.00000000003539 -5 0  35.41666666669911 -5 0  35.83333333336282 -5 0  36.25000000002654 -5 0  36.66666666669026 -5 0  37.08333333335398 -5 0  37.50000000001769 -5 0  37.91666666668141 -5 0  38.33333333334513 -5 0  38.75000000000885 -5 0  39.16666666667257 -5 0  39.58333333333628 -5 0  40 -4.583333333332821 0  40 -4.166666666665642 0  40 -3.74999999999855 0  40 -3.333333333333135 0  40 -2.916666666667806 0  40 -2.500000000002478 0  40 -2.083333333337148 0  40 -1.666666666671818 0  40 -1.250000000006488 0  40 -0.8333333333405228 0  40 -0.4166666666733416 0  40 -6.163070054299169e-12 0  40 0.4166666666610173 0  40 0.8333333333281976 0  40 1.249999999995378 0  40 1.666666666662558 0  40 2.083333333329739 0  40 2.499999999996919 0  40 2.916666666664099 0  40 3.33333333333128 0  40 3.74999999999846 0  40 4.166666666665641 0  40 4.583333333332821 0  39.58333333333628 5 0  39.16666666667256 5 0  38.75000000000885 5 0  38.33333333334513 5 0  37.91666666668141 5 0  37.50000000001769 5 0  37.08333333335398 5 0  36.66666666669025 5 0  36.25000000002654 5 0  35.83333333336282 5 0  35.41666666669911 5 0  35.00000000003539 5 0  34.58333333337167 5 0  34.16666666670795 5 0  33.75000000004424 5 0  33.33333333338052 5 0  32.9166666667168 5 0  32.50000000005308 5 0  32.08333333338936 5 0  31.66666666671408 5 0  31.25000000003556 5 0  30.83333333335704 5 0  30.41666666667852 5 0  29.59259259259259 5 0  29.18518518518519 5 0  28.77777777777778 5 0  28.37037037037037 5 0  27.96296296296296 5 0  27.55555555555556 5 0  27.14814814814815 5 0  26.74074074074074 5 0  26.33333333333333 5 0  25.92592592592593 5 0  25.51851851851852 5 0  25.11111111111111 5 0  24.7037037037037 5 0  24.2962962962963 5 0  23.88888888888889 5 0  23.48148148148148 5 0  23.07407407407408 5 0  22.66666666666667 5 0  22.25925925925926 5 0  21.85185185185185 5 0  21.44444444444445 5 0  21.03703703703704 5 0  20.62962962962963 5 0  20.22222222222222 5 0  19.81481481481482 5 0  19.40740740740741 5 0  19 5 0  18.5925925925926 5 0  18.18518518518519 5 0  17.77777777777778 5 0  17.37037037037037 5 0  16.96296296296296 5 0  16.55555555555556 5 0  16.14814814814815 5 0  15.74074074074074 5 0  15.33333333333333 5 0  14.92592592592593 5 0  14.51851851851852 5 0  14.11111111111111 5 0  13.70370370370371 5 0  13.2962962962963 5 0  12.88888888888889 5 0  12.48148148148148 5 0  12.07407407407408 5 0  11.66666666666667 5 0  11.25925925925926 5 0  10.85185185185185 5 0  10.44444444444445 5 0  10.03703703703704 5 0  9.629629629629633 5 0  9.222222222222221 5 0  8.814814814814817 5 0  8.407407407407408 5 0  7.5789473684193 5 0  7.157894736838599 5 0  6.73684210526082 5 0  6.315789473684795 5 0  5.894736842108769 5 0  5.473684210532742 5 0  5.052631578956715 5 0  4.631578947380689 5 0  4.210526315804662 5 0  3.789473684226299 5 0  3.368421052645599 5 0  2.947368421064898 5 0  2.526315789484198 5 0  2.105263157903499 5 0  1.6842105263228 5 0  1.2631578947421 5 0  0.8421052631613994 5 0  0.4210526315806993 5 0  0 4.545454545454545 0  0 4.09090909090909 0  0 3.636363636363634 0  0 3.18181818181818 0  0 2.727272727272726 0  0 2.272727272727271 0  0 1.818181818181817 0  0 1.363636363636363 0  0 0.9090909090909092 0  0 0.454545454545455 0  0 -0.4545454545450807 0  0 -0.9090909090895867 0  0 -1.363636363633713 0  0 -1.818181818177841 0  0 -2.272727272723127 0  0 -2.727272727269273 0  0 -3.181818181815419 0  0 -3.636363636361564 0  0 -4.090909090907709 0  0 -4.545454545453855 0  8 -4.499999999999999 0  8 -3.999999999999999 0  8 -3.499999999999999 0  8 -3 0  8.137254901963859 -2.5 0  8.274509803926303 -2.5 0  8.411764705886863 -2.5 0  8.549019607849138 -2.5 0  8.686274509809513 -2.5 0  8.82352941176989 -2.5 0  8.960784313730265 -2.5 0  9.098039215690642 -2.5 0  9.235294117651017 -2.5 0  9.372549019611395 -2.5 0  9.50980392157177 -2.5 0  9.647058823532147 -2.5 0  9.784313725492522 -2.5 0  9.921568627452897 -2.5 0  10.05882352941327 -2.5 0  10.19607843137365 -2.5 0  10.33333333333402 -2.5 0  10.4705882352944 -2.5 0  10.60784313725478 -2.5 0  10.74509803921515 -2.5 0  10.88235294117553 -2.5 0  11.0196078431359 -2.5 0  11.15686274509628 -2.5 0  11.29411764705665 -2.5 0  11.43137254901703 -2.5 0  11.56862745097915 -2.5 0  11.70588235294301 -2.5 0  11.84313725490686 -2.5 0  11.98039215687072 -2.5 0  12.11764705883209 -2.5 0  12.25490196079247 -2.5 0  12.39215686275285 -2.5 0  12.52941176471322 -2.5 0  12.6666666666736 -2.5 0  12.80392156863397 -2.5 0  12.94117647059435 -2.5 0  13.07843137255473 -2.5 0  13.2156862745151 -2.5 0  13.35294117647548 -2.5 0  13.49019607843586 -2.5 0  13.62745098039623 -2.5 0  13.76470588235661 -2.5 0  13.90196078431699 -2.5 0  14.03921568627736 -2.5 0  14.17647058823774 -2.5 0  14.31372549019812 -2.5 0  14.45098039215849 -2.5 0  14.58823529411887 -2.5 0  14.72549019607925 -2.5 0  14.86274509803962 -2.5 0  15.20270270270254 -2.5 0  15.40540540540509 -2.5 0  15.60810810810763 -2.5 0  15.81081081081017 -2.5 0  16.01351351351227 -2.5 0  16.21621621621265 -2.5 0  16.41891891891279 -2.5 0  16.62162162161294 -2.5 0  16.82432432431308 -2.5 0  17.02702702701322 -2.5 0  17.22972972971337 -2.5 0  17.43243243241351 -2.5 0  17.63513513511365 -2.5 0  17.83783783781379 -2.5 0  18.04054054051394 -2.5 0  18.24324324321408 -2.5 0  18.44594594591422 -2.5 0  18.64864864861436 -2.5 0  18.85135135131451 -2.5 0  19.05405405401465 -2.5 0  19.25675675671479 -2.5 0  19.45945945941494 -2.5 0  19.66216216211508 -2.5 0  19.86486486481522 -2.5 0  20.06756756751536 -2.5 0  20.27027027021551 -2.5 0  20.47297297291565 -2.5 0  20.6756756756158 -2.5 0  20.87837837831594 -2.5 0  21.08108108101608 -2.5 0  21.28378378371622 -2.5 0  21.48648648641637 -2.5 0  21.68918918911651 -2.5 0  21.89189189181666 -2.5 0  22.0945945945168 -2.5 0  22.29729729721694 -2.5 0  22.49999999991778 -2.5 0  22.70270270262203 -2.5 0  22.90540540532697 -2.5 0  23.10810810803191 -2.5 0  23.31081081073686 -2.5 0  23.5135135134418 -2.5 0  23.71621621614674 -2.5 0  23.91891891885169 -2.5 0  24.12162162155663 -2.5 0  24.32432432426158 -2.5 0  24.52702702696652 -2.5 0  24.72972972967146 -2.5 0  24.93243243237641 -2.5 0  25.13513513508135 -2.5 0  25.3378378377863 -2.5 0  25.54054054049124 -2.5 0  25.74324324319618 -2.5 0  25.94594594590112 -2.5 0  26.14864864860607 -2.5 0  26.35135135131101 -2.5 0  26.55405405401596 -2.5 0  26.7567567567209 -2.5 0  26.95945945942584 -2.5 0  27.16216216213079 -2.5 0  27.36486486483573 -2.5 0  27.56756756754068 -2.5 0  27.77027027024562 -2.5 0  27.97297297295056 -2.5 0  28.1756756756555 -2.5 0  28.37837837836045 -2.5 0  28.5810810810654 -2.5 0  28.78378378377034 -2.5 0  28.98648648647528 -2.5 0  29.18918918918023 -2.5 0  29.39189189188517 -2.5 0  29.59459459459011 -2.5 0  29.79729729729506 -2.5 0  30 -3.000000000000001 0  30 -3.500000000000001 0  30 -4.000000000000001 0  30 -4.5 0  8 4.499999999999999 0  8 3.999999999999999 0  8 3.499999999999999 0  8 3 0  8.137254901963859 2.5 0  8.274509803926303 2.5 0  8.411764705886863 2.5 0  8.549019607849138 2.5 0  8.686274509809513 2.5 0  8.82352941176989 2.5 0  8.960784313730265 2.5 0  9.098039215690642 2.5 0  9.235294117651017 2.5 0  9.372549019611395 2.5 0  9.50980392157177 2.5 0  9.647058823532147 2.5 0  9.784313725492522 2.5 0  9.921568627452897 2.5 0  10.05882352941327 2.5 0  10.19607843137365 2.5 0  10.33333333333402 2.5 0  10.4705882352944 2.5 0  10.60784313725478 2.5 0  10.74509803921515 2.5 0  10.88235294117553 2.5 0  11.0196078431359 2.5 0  11.15686274509628 2.5 0  11.29411764705665 2.5 0  11.43137254901703 2.5 0  11.56862745097915 2.5 0  11.70588235294301 2.5 0  11.84313725490686 2.5 0  11.98039215687072 2.5 0  12.11764705883209 2.5 0  12.25490196079247 2.5 0  1
[...]
<PointData  Vectors="f_17"> 
<DataArray  type="Float64"  Name="f_17"  NumberOfComponents="3" format="ascii">1.0000001299700214e+00 0.0000000000000000e+00 0.0000000000000000e+00  1.0414427435643394e+00 0.0000000000000000e+00 0.0000000000000000e+00  1.0498441448841211e+00 0.0000000000000000e+00 0.0000000000000000e+00  1.0744593292093902e+00 0.0000000000000000e+00 0.0000000000000000e+00  1.0942727375278627e+00 0.0000000000000000e+00 0.0000000000000000e+00  1.0651692803438719e+00 0.0000000000000000e+00 0.0000000000000000e+00  1.0394216135147571e+00 0.0000000000000000e+00 0.0000000000000000e+00  1.0000001299700214e+00 0.0000000000000000e+00 0.0000000000000000e+00  1.0206177458176136e+00 -5.2117083019833525e-02 0.0000000000000000e+00  1.0341017385823372e+00 -5.6351867786460889e-02 0.0000000000000000e+00  9.8960138861530744e-01 -1.8760605435660303e-02 0.0000000000000000e+00  1.1419373002041064e+00 -2.5561604739166830e-02 0.0000000000000000e+00  1.0703530577847034e+00 -9.0671095076596236e-02 0.0000000000000000e+00  1.0221853204820468e+00 4.9485618243015075e-02 0.0000000000000000e+00  0.0000000000000000e+00 0.0000000000000000e+00 0.0000000000000000e+00  0.0000000000000000e+00 0.0000000000000000e+00 0.0000000000000000e+00  1.0000001299700214e+00 0.0000000000000000e+00 0.0000000000000000e+00  9.9927412222982137e-01 0.0000000000000000e+00 0.0000000000000000e+00  9.9865813430371109e-01 0.0000000000000000e+00 0.0000000000000000e+00  1.0006706837996364e+00 0.0000000000000000e+00 0.0000000000000000e+00  1.0004073779215170e+00 0.0000000000000000e+00 0.0000000000000000e+00  1.0013166617700506e+00 0.0000000000000000e+00 0.0000000000000000e+00  1.0015821597865233e+00 0.0000000000000000e+00 0.0000000000000000e+00  1.0018665495862003e+00 0.0000000000000000e+00 0.0000000000000000e+00  1.0027169833234253e+00 0.0000000000000000e+00 0.0000000000000000e+00  1.0039617723336454e+00 0.0000000000000000e+00 0.0000000000000000e+00  1.0051391175975548e+00 0.0000000000000000e+00 0.0000000000000000e+00  1.0066252439198351e+00 0.0000000000000000e+00 0.0000000000000000e+00  1.0088889976849511e+00 0.0000000000000000e+00 0.0000000000000000e+00  1.0112189122928787e+00 0.0000000000000000e+00 0.0000000000000000e+00  1.0150851722420444e+00 0.0000000000000000e+00 0.0000000000000000e+00  1.0167445180492609e+00 0.0000000000000000e+00 0.0000000000000000e+00  1.0212252113695741e+00 0.0000000000000000e+00 0.0000000000000000e+00  1.0279365792659627e+00 0.0000000000000000e+00 0.0000000000000000e+00  1.0333750140135727e+00 0.0000000000000000e+00 0.0000000000000000e+00  1.0496333412034589e+00 0.0000000000000000e+00 0.0000000000000000e+00  1.0583197462733931e+00 0.0000000000000000e+00 0.0000000000000000e+00  1.0664605642585625e+00 0.0000000000000000e+00 0.0000000000000000e+00  1.0749930913350736e+00 0.0000000000000000e+00 0.0000000000000000e+00  1.0817428546770025e+00 0.0000000000000000e+00 0.0000000000000000e+00  1.0873359005616205e+00 0.0000000000000000e+00 0.0000000000000000e+00  1.0918204824295208e+00 0.0000000000000000e+00 0.0000000000000000e+00  1.0928957958964685e+00 0.0000000000000000e+00 0.0000000000000000e+00  1.0923027985753191e+00 0.0000000000000000e+00 0.0000000000000000e+00  1.0894256762245498e+00 0.0000000000000000e+00 0.0000000000000000e+00  1.0853746192184535e+00 0.0000000000000000e+00 0.0000000000000000e+00  1.0794964343367091e+00 0.0000000000000000e+00 0.0000000000000000e+00  1.0747417024813173e+00 0.0000000000000000e+00 0.0000000000000000e+00  1.0706209195063454e+00 0.0000000000000000e+00 0.0000000000000000e+00  1.0677749561008991e+00 0.0000000000000000e+00 0.0000000000000000e+00  1.0669216546737483e+00 0.0000000000000000e+00 0.0000000000000000e+00  1.0673540345264620e+00 0.0000000000000000e+00 0.0000000000000000e+00  1.0686512782757256e+00 0.0000000000000000e+00 0.0000000000000000e+00  1.0695113639177154e+00 0.0000000000000000e+00 0.0000000000000000e+00  1.0689865825185796e+00 0.0000000000000000e+00 0.0000000000000000e+00  1.0678904271114444e+00 0.0000000000000000e+00 0.0000000000000000e+00  1.0651397074615148e+00 0.0000000000000000e+00 0.0000000000000000e+00  1.0594446754373013e+00 0.0000000000000000e+00 0.0000000000000000e+00  1.0535946262044975e+00 0.0000000000000000e+00 0.0000000000000000e+00  1.0474952288522066e+00 0.0000000000000000e+00 0.0000000000000000e+00  1.0423419018862228e+00 0.0000000000000000e+00 0.0000000000000000e+00  1.0394561010353582e+00 0.0000000000000000e+00 0.0000000000000000e+00  1.0385868538983491e+00 0.0000000000000000e+00 0.0000000000000000e+00  1.0402758786360122e+00 0.0000000000000000e+00 0.0000000000000000e+00  1.0445675212002521e+00 0.0000000000000000e+00 0.0000000000000000e+00  1.0493985116731379e+00 0.0000000000000000e+00 0.0000000000000000e+00  1.0543367974602378e+00 0.0000000000000000e+00 0.0000000000000000e+00  1.0598952943698972e+00 0.0000000000000000e+00 0.0000000000000000e+00  1.0624589364874126e+00 0.0000000000000000e+00 0.0000000000000000e+00  1.0624289457638438e+00 0.0000000000000000e+00 0.0000000000000000e+00  1.0609374581381521e+00 0.0000000000000000e+00 0.0000000000000000e+00  1.0569289046633923e+00 0.0000000000000000e+00 0.0000000000000000e+00  1.0519761931677629e+00 0.0000000000000000e+00 0.0000000000000000e+00  1.0488568341784761e+00 0.0000000000000000e+00 0.0000000000000000e+00  1.0460511656996694e+00 0.0000000000000000e+00 0.0000000000000000e+00  1.0450928723466164e+00 0.0000000000000000e+00 0.0000000000000000e+00  1.0470361260135577e+00 0.0000000000000000e+00 0.0000000000000000e+00  1.0500888415421079e+00 0.0000000000000000e+00 0.0000000000000000e+00  1.0542506162131626e+00 0.0000000000000000e+00 0.0000000000000000e+00  1.0593323400179611e+00 0.0000000000000000e+00 0.0000000000000000e+00  1.0626936709980175e+00 0.0000000000000000e+00 0.0000000000000000e+00  1.0640474875406247e+00 0.0000000000000000e+00 0.0000000000000000e+00  1.0658282498843124e+00 0.0000000000000000e+00 0.0000000000000000e+00  1.0636358969966384e+00 0.0000000000000000e+00 0.0000000000000000e+00  1.0583627408940599e+00 0.0000000000000000e+00 0.0000000000000000e+00  1.0537757439164059e+00 0.0000000000000000e+00 0.0000000000000000e+00  1.0514018596411649e+00 0.0000000000000000e+00 0.0000000000000000e+00  1.0494312017643324e+00 0.0000000000000000e+00 0.0000000000000000e+00  1.0518288366620612e+00 0.0000000000000000e+00 0.0000000000000000e+00  1.0545170337502536e+00 0.0000000000000000e+00 0.0000000000000000e+00  1.0579977260238977e+00 0.0000000000000000e+00 0.0000000000000000e+00  1.0621109191671385e+00 0.0000000000000000e+00 0.0000000000000000e+00  1.0651282420325325e+00 0.0000000000000000e+00 0.0000000000000000e+00  1.0659940337454026e+00 0.0000000000000000e+00 0.0000000000000000e+00  1.0649023401014350e+00 0.0000000000000000e+00 0.0000000000000000e+00  1.0625947335868076e+00 0.0000000000000000e+00 0.0000000000000000e+00  1.0593975628375325e+00 0.0000000000000000e+00 0.0000000000000000e+00  1.0559392520475464e+00 0.0000000000000000e+00 0.0000000000000000e+00  1.0539829914730832e+00 0.0000000000000000e+00 0.0000000000000000e+00  1.0537774113674920e+00 0.0000000000000000e+00 0.0000000000000000e+00  1.0552220208196024e+00 0.0000000000000000e+00 0.0000000000000000e+00  1.0589663878358508e+00 0.0000000000000000e+00 0.0000000000000000e+00  1.0636757146101752e+00 0.0000000000000000e+00 0.0000000000000000e+00  1.0690603974404391e+00 0.0000000000000000e+00 0.0000000000000000e+00  1.0726251707360901e+00 0.0000000000000000e+00 0.0000000000000000e+00  1.0752617847075276e+00 0.0000000000000000e+00 0.0000000000000000e+00  1.0758232044669462e+00 0.0000000000000000e+00 0.0000000000000000e+00  1.0756893553255373e+00 0.0000000000000000e+00 0.0000000000000000e+00  1.0741262468437593e+00 0.0000000000000000e+00 0.0000000000000000e+00  1.0733390940092773e+00 0.0000000000000000e+00 0.0000000000000000e+00  1.0726496873330094e+00 0.0000000000000000e+00 0.0000000000000000e+00  1.0740565310642041e+00 -2.4166867610137450e-03 0.0000000000000000e+00  1.0717914469559187e+00 -4.7493210044125362e-03 0.0000000000000000e+00  1.0667653999391773e+00 -6.6184953473167780e-03 0.0000000000000000e+00  1.0551864730752061e+00 -7.4820165362651228e-03 0.0000000000000000e+00  1.0360223067227976e+00 -7.8016349176554360e-03 0.0000000000000000e+00  1.0044461056586358e+00 -5.3266739959175972e-03 0.0000000000000000e+00  9.5987404386787822e-01 -6.5612722917908310e-03 0.0000000000000000e+00  9.0617743481184299e-01 -1.2641120550062302e-02 0.0000000000000000e+00  8.4550346528513931e-01 -2.9890548958074619e-02 0.0000000000000000e+00  7.7928120215995844e-01 -5.1763456229036900e-02 0.0000000000000000e+00  7.2255881995731253e-01 -6.3277208446464825e-02 0.0000000000000000e+00  7.0240251068425463e-01 -6.0727523241057846e-02 0.0000000000000000e+00  7.4503870478787626e-01 -4.2268521973386076e-02 0.0000000000000000e+00  8.5619628662551517e-01 -1.7931520020133491e-02 0.0000000000000000e+00  1.0021490644795106e+00 1.7832797636358925e-02 0.0000000000000000e+00  1.1254319740435312e+00 3.9440887796480639e-02 0.0000000000000000e+00  1.1860096339241306e+00 4.4223153843596853e-02 0.0000000000000000e+00  1.1878710356419924e+00 4.0811096714350639e-02 0.0000000000000000e+00  1.1592725899201806e+00 2.9523051443470373e-02 0.0000000000000000e+00  1.1296503248696468e+00 2.0378684171199920e-02 0.0000000000000000e+00  1.1108767532383359e+00 1.3466239007686240e-02 0.0000000000000000e+00  1.1016825552291505e+00 8.3442223808904356e-03 0.0000000000000000e+00  1.0963784945905208e+00 3.8368154219407366e-03 0.0000000000000000e+00  1.0891910550855843e+00 0.0000000000000000e+00 0.0000000000000000e+00  1.0826318844126681e+00 0.0000000000000000e+00 0.0000000000000000e+00  1.0753101229138671e+00 0.0000000000000000e+00 0.0000000000000000e+00  1.0689388105985542e+00 0.0000000000000000e+00 0.0000000000000000e+00  1.0635038362067328e+00 0.0000000000000000e+00 0.0000000000000000e+00  1.0607665041509566e+00 0.0000000000000000e+00 0.0000000000000000e+00  1.0603764492585666e+00 0.0000000000000000e+00 0.0000000000000000e+00  1.0621989077750209e+00 0.0000000000000000e+00 0.0000000000000000e+00  1.0643833637918054e+00 0.0000000000000000e+00 0.0000000000000000e+00  1.0670446848405328e+00 0.0000000000000000e+00 0.0000000000000000e+00  1.0687031709339321e+00 0.0000000000000000e+00 0.0000000000000000e+00  1.0688026090363607e+00 0.0000000000000000e+00 0.0000000000000000e+00  1.0670847900438249e+00 0.0000000000000000e+00 0.0000000000000000e+00  1.0645090758574374e+00 0.0000000000000000e+00 0.0000000000000000e+00  1.0600263218014421e+00 0.0000000000000000e+00 0.0000000000000000e+00  1.0565594282346444e+00 0.0000000000000000e+00 0.0000000000000000e+00  1.0525616384705023e+00 0.0000000000000000e+00 0.0000000000000000e+00  1.0507679472841902e+00 0.0000000000000000e+00 0.0000000000000000e+00  1.0507899945573662e+00 0.0000000000000000e+00 0.0000000000000000e+00  1.0533226219385563e+00 0.0000000000000000e+00 0.0000000000000000e+00  1.0567785082507444e+00 0.0000000000000000e+00 0.0000000000000000e+00  1.0603820097294705e+00 0.0000000000000000e+00 0.0000000000000000e+00  1.0636484721019490e+00 0.0000000000000000e+00 0.0000000000000000e+00  1.0640184800854511e+00 0.0000000000000000e+00 0.0000000000000000e+00  1.0616423366760110e+00 0.0000000000000000e+00 0.0000000000000000e+00  1.0570099380134639e+00 0.0000000000000000e+00 0.0000000000000000e+00  1.0533849829028179e+00 0.0000000000000000e+00 0.0000000000000000e+00  1.0510803995125098e+00 0.0000000000000000e+00 0.0000000000000000e+00  1.0489873602346609e+00 0.0000000000000000e+00 0.0000000000000000e+00  1.0468234995576320e+00 0.0000000000000000e+00 0.0000000000000000e+00  1.0488617879844280e+00 0.0000000000000000e+00 0.0000000000000000e+00  1.0524328377655778e+00 0.0000000000000000e+00 0.0000000000000000e+00  1.0560507322453965e+00 0.0000000000000000e+00 0.0000000000000000e+00  1.0601420523708442e+00 0.0000000000000000e+00 0.0000000000000000e+00  1.0630717342915379e+00 0.0000000000000000e+00 0.0000000000000000e+00  1.0633613015106389e+00 0.0000000000000000e+00 0.0000000000000000e+00  1.0620983120183061e+00 0.0000000000000000e+00 0.0000000000000000e+00  1.0585435859941850e+00 0.0000000000000000e+00 0.0000000000000000e+00  1.0527854767379869e+00 0.0000000000000000e+00 0.0000000000000000e+00  1.0480033916666254e+00 0.0000000000000000e+00 0.0000000000000000e+00  1.0439505970973315e+00 0.0000000000000000e+00 0.0000000000000000e+00  1.0406542573696924e+00 0.0000000000000000e+00 0.0000000000000000e+00  1.0406282371281574e+00 0.0000000000000000e+00 0.0000000000000000e+00  1.0427257379111725e+00 0.0000000000000000e+00 0.0000000000000000e+00  1.0456689744711585e+00 0.0000000000000000e+00 0.0000000000000000e+00  1.0511321263292828e+00 0.0000000000000000e+00 0.0000000000000000e+00  1.0565496963452798e+00 0.0000000000000000e+00 0.0000000000000000e+00  1.0601370262618752e+00 0.0000000000000000e+00 0.0000000000000000e+00  1.0621579102028069e+00 0.0000000000000000e+00 0.0000000000000000e+00  1.0618856756972850e+00 0.0000000000000000e+00 0.0000000000000000e+00  1.0589523717169449e+00 0.0000000000000000e+00 0.0000000000000000e+00  1.0549156579192212e+00 0.0000000000000000e+00 0.0000000000000000e+00  1.0503737590978486e+00 0.0000000000000000e+00 0.0000000000000000e+00  1.0462866609101089e+00 0.0000000000000000e+00 0.0000000000000000e+00  1.0445983568300201e+00 0.0000000000000000e+00 0.0000000000000000e+00  1.0440559953427950e+00 0.0000000000000000e+00 0.0000000000000000e+00  1.0463921290127971e+00 0.0000000000000000e+00 0.0000000000000000e+00  1.0516925982647867e+00 0.0000000000000000e+00 0.0000000000000000e+00  1.0585449210123914e+00 0.0000000000000000e+00 0.0000000000000000e+00  1.0657115328471551e+00 0.0000000000000000e+00 0.0000000000000000e+00  1.0725110661440038e+00 0.0000000000000000e+00 0.0000000000000000e+00  1.0790038546947944e+00 0.0000000000000000e+00 0.0000000000000000e+00  1.0850907897832565e+00 0.0000000000000000e+00 0.0000000000000000e+00  1.0890014111797186e+00 0.0000000000000000e+00 0.0000000000000000e+00  1.0912641044622160e+00 0.0000000000000000e+00 0.0000000000000000e+00  1.0936117168506554e+00 0.0000000000000000e+00 0.0000000000000000e+00  1.0931106326666999e+00 0.0000000000000000e+00 0.0000000000000000e+00  1.0924087542371756e+00 0.0000000000000000e+00 0.0000000000000000e+00  1.0902627097435393e+00 0.0000000000000000e+00 0.0000000000000000e+00  1.0863572696149184e+00 0.0000000000000000e+00 0.0000000000000000e+00  1.0815039430674647e+00 0.0000000000000000e+00 0.0000000000000000e+00  1.0759364082213356e+00 0.0000000000000000e+00 0.0000000000000000e+00  1.0695093997843237e+00 0.0000000000000000e+00 0.0000000000000000e+00  1.0617745991588450e+00 0.0000000000000000e+00 0.0000000000000000e+00  1.0546897677084854e+00 0.0000000000000000e+00 0.0000000000000000e+00  1.0469147114477324e+00 0.0000000000000000e+00 0.0000000000000000e+00  1.0321149807564924e+00 0.0000000000000000e+00 0.0000000000000000e+00  1.0256923134587026e+00 0.0000000000000000e+00 0.0000000000000000e+00  1.0205831639041627e+00 0.0000000000000000e+00 0.0000000000000000e+00  1.0159698760765603e+00 0.0000000000000000e+00 0.0000000000000000e+00  1.0122112635076568e+00 0.0000000000000000e+00 0.0000000000000000e+00  1.0092548698297426e+00 0.0000000000000000e+00 0.0000000000000000e+00  1.0070396552342251e+00 0.0000000000000000e+00 0.0000000000000000e+00  1.0049244256266028e+00 0.0000000000000000e+00 0.0000000000000000e+00  1.0034968699176148e+00 0.0000000000000000e+00 0.0000000000000000e+00  1.0025650865649969e+00 0.0000000000000000e+00 0.0000000000000000e+00  1.0014685096031202e+00 0.0000000000000000e+00 0.0000000000000000e+00  1.0013776943104016e+00 0.0000000000000000e+00 0.0000000000000000e+00  1.0003666044256176e+00 0.0000000000000000e+00 0.0000000000000000e+00  1.0003706422852952e+00 0.0000000000000000e+00 0.0000000000000000e+00  9.9994358496755753e-01 0.0000000000000000e+00 0.0000000000000000e+00  1.0005929066959507e+00 0.0000000000000000e+00 0.0000000000000000e+00  1.0002997862252503e+00 0.0000000000000000e+00 0.0000000000000000e+00  9.9980636801588463e-01 0.0000000000000000e+00 0.0000000000000000e+00  1.0000001299700214e+00 0.0000000000000000e+00 0.0000000000000000e+00  1.0000001299700214e+00 0.0000000000000000e+00 0.0000000000000000e+00  1.0000001299700214e+00 0.0000000000000000e+00 0.0000000000000000e+00  1.0000001299700214e+00 0.0000000000000000e+00 0.0000000000000000e+00  1.0000001299700214e+00 0.0000000000000000e+00 0.0000000000000000e+00  1.0000001299700214e+00 0.0000000000000000e+00 0.0000000000000000e+00  1.0000001299700214e+00 0.0000000000000000e+00 0.0000000000000000e+00  1.0000001299700214e+00 0.0000000000000000e+00 0.0000000000000000e+00  1.0000001299700214e+00 0.0000000000000000e+00 0.0000000000000000e+00  1.0000001299700214e+00 0.0000000000000000e+00 0.0000000000000000e+00  1.0000001299700214e+00 0.0000000000000000e+00 0.0000000000000000e+00  1.0000001299700214e+00 0.0000000000000000e+00 0.0000000000000000e+00  1.0000001299700214e+00 0.0000000000000000e+00 0.0000000000000000e+00  1.0000001299700214e+00 0.0000000000000000e+00 0.0000000000000000e+00  1.0000001299700214e+00 0.0000000000000000e+00 0.0000000000000000e+00  1.0000001299700214e+00 0.0000000000000000e+00 0.0000000000000000e+00  1.0000001299700214e+00 0.0000000000000000e+00 0.0000000000000000e+00  1.0000001299700214e+00 0.0000000000000000e+00 0.0000000000000000e+00  1.0000001299700214e+00 0.0000000000000000e+00 0.0000000000000000e+00  1.0000001299700214e+00 0.0000000000000000e+00 0.0000000000000000e+00  1.0408305021812643e+00 -9.5778439222614347e-03 0.0000000000000000e+00  1.0377843300641043e+00 -1.9341042739640282e-02 0.0000000000000000e+00  1.0354504916044645e+00 -2.9818188986837316e-02 0.0000000000000000e+00  1.0295103175537319e+00 -4.0864139152066624e-02 0.0000000000000000e+00  1.0233336501331749e+00 -5.6012462118320713e-02 0.0000000000000000e+00  1.0277676309796555e+00 -5.9569936107611354e-02 0.0000000000000000e+00  1.0318678073333245e+00 -6.3198472458778646e-02 0.0000000000000000e+00  1.0369820070794629e+00 -6.6542105711061630e-02 0.0000000000000000e+00  1.0423973327735685e+00 -6.9730274981846085e-02 0.0000000000000000e+00  1.0484559038548638e+00 -7.2512462525098922e-02 0.0000000000000000e+00  1.0551140845998055e+00 -7.4922364718947490e-02 0.0000000000000000e+00  1.0622550852660386e+00 -7.6664475315040545e-02 0.0000000000000000e+00  1.0699204886206646e+00 -7.7843925429272889e-02 0.0000000000000000e+00  1.0777598922250844e+00 -7.8120102895218868e-02 0.0000000000000000e+00  1.0859460846635682e+00 -7.7703259814796560e-02 0.0000000000000000e+00  1.0942164464782684e+00 -7.6456797781061125e-02 0.0000000000000000e+00  1.1025835533564090e+00 -7.4100008381308466e-02 0.0000000000000000e+00  1.1106178743703619e+00 -7.0749098912566713e-02 0.0000000000000000e+00  1.1183902463295330e+00 -6.6590262522566751e-02 0.0000000000000000e+00  1.1257399510399644e+00 -6.1521643287753232e-02 0.0000000000000000e+00  1.1324342978016519e+00 -5.5564682532688064e-02 0.0000000000000000e+00  1.1384846021316211e+00 -4.8867804839503905e-02 0.0000000000000000e+00  1.1437275065851173e+00 -4.1525046388461717e-02 0.0000000000000000e+00  1.1481562743120342e+00 -3.3437902052097047e-02 0.0000000000000000e+00  1.1516700845277821e+00 -2.5035423540007783e-02 0.0000000000000000e+00  1.1542262559340524e+00 -1.6072791688830225e-02 0.0000000000000000e+00  1.1555983073320732e+00 -6.7229577487063971e-03 0.0000000000000000e+00  1.1560213475422583e+00 2.7692198405669726e-03 0.0000000000000000e+00  1.1551293816747112e+00 1.2312043655626452e-02 0.0000000000000000e+00  1.1530702994695585e+00 2.1840260882433637e-02 0.0000000000000000e+00  1.1497231734951958e+00 3.1153632337419537e-02 0.0000000000000000e+00  1.1450791363529682e+00 3.9966346343239319e-02 0.0000000000000000e+00  1.1392382823057972e+00 4.8308183678727627e-02 0.0000000000000000e+00  1.1321606270590003e+00 5.5953441895193197e-02 0.0000000000000000e+00  1.1240501284292410e+00 6.2570379259510575e-02 0.0000000000000000e+00  1.1149736655540292e+00 6.80712090753